/*--------------------------------*- C++ -*----------------------------------*\
| =========                 |                                                 |
| \\      /  F ield         | OpenFOAM: The Open Source CFD Toolbox           |
|  \\    /   O peration     | Version:  2.3.0                                 |
|   \\  /    A nd           | Web:      www.OpenFOAM.org                      |
|    \\/     M anipulation  |                                                 |
\*---------------------------------------------------------------------------*/
FoamFile
{
    version     2.0;
    format      ascii;
    class       volScalarField;
    location    "100";
    object      k;
}
// * * * * * * * * * * * * * * * * * * * * * * * * * * * * * * * * * * * * * //

dimensions      [0 2 -2 0 0 0 0];

internalField   nonuniform List<scalar> 
14415
(
0.00413076
0.00413506
0.00413992
0.00414549
0.00415192
0.00415942
0.00416823
0.00417869
0.00419126
0.00420653
0.00422535
0.00424892
0.00427901
0.00431868
0.00436653
0.00442453
0.00449514
0.00458159
0.00468812
0.00482047
0.00498657
0.00519765
0.00547021
0.00582891
0.00631398
0.00698845
0.00797952
0.00940672
0.011832
0.0134154
0.0187878
0.0294034
0.0807917
0.142236
0.00413214
0.00413658
0.00414158
0.00414727
0.00415384
0.00416151
0.00417052
0.00418123
0.00419408
0.00420971
0.00422896
0.00425308
0.00428384
0.00432441
0.00437325
0.00443239
0.00450438
0.00459248
0.00470102
0.00483585
0.00500506
0.0052201
0.00549781
0.00586336
0.00635799
0.00704594
0.00805836
0.00946275
0.0118284
0.0134495
0.0186003
0.0289741
0.0789975
0.149013
0.00413358
0.00413818
0.00414332
0.00414917
0.0041559
0.00416375
0.00417299
0.00418397
0.00419715
0.00421317
0.00423291
0.00425763
0.00428917
0.00433076
0.00438076
0.00444126
0.00451488
0.00460495
0.00471593
0.00485379
0.00502683
0.00524678
0.00553098
0.00590521
0.00641214
0.00711767
0.00815834
0.00953288
0.0118253
0.0134946
0.0185042
0.0286577
0.0780473
0.157195
0.0041351
0.00413985
0.00414517
0.00415119
0.00415811
0.00416617
0.00417566
0.00418693
0.00420047
0.00421694
0.00423723
0.00426265
0.00429507
0.00433783
0.00438919
0.00445131
0.00452687
0.00461935
0.0047333
0.00487492
0.00505275
0.00527895
0.00557148
0.00595706
0.00648033
0.00720957
0.00828904
0.00963346
0.0119361
0.0135675
0.0186039
0.0285121
0.0776453
0.167524
0.0041366
0.00414151
0.00414701
0.0041532
0.00416032
0.0041686
0.00417835
0.00418993
0.00420385
0.00422077
0.00424164
0.00426777
0.00430111
0.00434509
0.00439789
0.00446172
0.00453935
0.00463437
0.00475149
0.00489708
0.00508
0.00531281
0.00561417
0.00601174
0.00655222
0.00730631
0.00842617
0.00972731
0.0120301
0.0136246
0.0186256
0.0282679
0.0766658
0.178993
0.00413817
0.00414325
0.00414894
0.00415533
0.00416266
0.00417119
0.00418121
0.00419313
0.00420746
0.00422489
0.00424639
0.00427331
0.00430767
0.004353
0.00440741
0.00447318
0.00455317
0.00465108
0.00477182
0.00492199
0.0051108
0.00535128
0.00566294
0.00607454
0.00663531
0.0074188
0.0085744
0.00982715
0.0121312
0.0136855
0.0186588
0.0280897
0.075971
0.193256
0.00413979
0.00414504
0.00415092
0.00415753
0.0041651
0.00417388
0.00418421
0.00419649
0.00421126
0.00422923
0.0042514
0.00427917
0.00431462
0.00436142
0.00441759
0.00448546
0.00456803
0.00466912
0.00479384
0.00494905
0.00514434
0.0053933
0.00571634
0.00614347
0.00672671
0.00754284
0.00871735
0.00992517
0.0122224
0.0137435
0.0186668
0.0279156
0.0752223
0.210595
0.00414148
0.00414689
0.00415298
0.00415981
0.00416763
0.0041767
0.00418735
0.00420001
0.00421525
0.0042338
0.00425669
0.00428538
0.00432201
0.00437038
0.00442844
0.0044986
0.00458396
0.00468851
0.00481754
0.00497822
0.00518055
0.00543868
0.00577403
0.00621788
0.0068253
0.0076741
0.00885037
0.0100141
0.012289
0.0137838
0.0186154
0.027677
0.0742743
0.231482
0.00414323
0.00414882
0.00415511
0.00416219
0.00417027
0.00417965
0.00419065
0.00420373
0.00421948
0.00423866
0.00426233
0.00429202
0.00432995
0.00438006
0.00444023
0.00451296
0.00460147
0.00470995
0.00484394
0.00501092
0.00522142
0.00549028
0.00584016
0.00630391
0.00694032
0.00780649
0.00898867
0.0101111
0.0123685
0.0138345
0.0185916
0.0275223
0.0736366
0.258673
0.00414501
0.00415078
0.00415729
0.00416461
0.00417299
0.00418268
0.00419406
0.00420759
0.00422388
0.00424373
0.00426825
0.00429901
0.00433833
0.00439032
0.00445277
0.0045283
0.00462028
0.00473308
0.00487254
0.00504652
0.00526614
0.00554704
0.00591331
0.00639967
0.00706926
0.00793642
0.00912371
0.0102067
0.0124417
0.0138779
0.0185507
0.0273676
0.0731311
0.294064
0.00414693
0.0041529
0.00415964
0.00416723
0.00417591
0.00418597
0.00419777
0.00421179
0.00422868
0.00424928
0.00427473
0.00430669
0.00434757
0.00440166
0.00446668
0.00454538
0.00464128
0.004759
0.00490469
0.0050867
0.00531682
0.00561165
0.00599704
0.00650998
0.00721905
0.00806975
0.00926311
0.0103089
0.012533
0.0139347
0.0185703
0.0273624
0.0732772
0.344351
0.00414882
0.00415499
0.00416196
0.00416982
0.00417882
0.00418924
0.00420146
0.00421599
0.00423349
0.00425484
0.00428124
0.00431441
0.00435685
0.00441305
0.00448066
0.00456251
0.00466231
0.00478488
0.00493668
0.00512647
0.00536666
0.00567473
0.00607806
0.00661562
0.0073554
0.00817456
0.00935341
0.0103689
0.0125259
0.0139306
0.0184022
0.0270882
0.0724932
0.409511
0.00415081
0.0041572
0.00416441
0.00417257
0.00418191
0.00419274
0.00420543
0.00422052
0.00423871
0.00426091
0.00428837
0.00432291
0.00436714
0.00442576
0.00449634
0.00458188
0.00468626
0.00481461
0.00497376
0.00517301
0.00542562
0.00575019
0.00617618
0.00674526
0.00749878
0.00829126
0.00946096
0.0104443
0.0125554
0.0139467
0.0183076
0.0269718
0.0725764
0.511078
0.00415289
0.00415951
0.004167
0.00417548
0.0041852
0.00419646
0.00420968
0.0042254
0.00424434
0.00426748
0.00429615
0.00433221
0.00437846
0.00443982
0.00451379
0.00460356
0.00471325
0.00484832
0.0050161
0.00522657
0.00549403
0.00583858
0.00629236
0.00689817
0.00765002
0.00841789
0.0095834
0.0105322
0.01262
0.0139833
0.0183017
0.027067
0.0738221
0.68771
0.00415502
0.00416189
0.00416965
0.00417846
0.00418858
0.00420031
0.00421408
0.00423045
0.0042502
0.00427434
0.00430426
0.00434194
0.0043903
0.00445453
0.00453206
0.00462624
0.00474145
0.00488347
0.00506012
0.00528205
0.00556462
0.00592934
0.00641103
0.00703222
0.00777794
0.0085206
0.00966435
0.0105876
0.01261
0.0139796
0.0181722
0.0270018
0.0749707
1.02974
0.0041572
0.00416433
0.0041724
0.00418157
0.00419212
0.00420435
0.00421872
0.00423582
0.00425645
0.00428168
0.00431299
0.00435245
0.00440316
0.00447059
0.00455208
0.00465121
0.00477263
0.00492252
0.00510926
0.00534427
0.00564414
0.00603211
0.00654612
0.00716241
0.00790073
0.00861926
0.00973857
0.0106355
0.0125913
0.0139669
0.0180425
0.0270074
0.0783953
1.89425
0.00415951
0.00416693
0.00417533
0.00418491
0.00419593
0.00420873
0.00422376
0.00424168
0.00426331
0.0042898
0.00432269
0.00436421
0.00441762
0.00448875
0.00457489
0.00467984
0.00480863
0.00496793
0.00516684
0.00541778
0.00573892
0.00615578
0.00669984
0.00730091
0.00803353
0.0087282
0.00983254
0.0106997
0.0126159
0.013992
0.0180142
0.0272992
0.0873179
3.51277
0.00416187
0.00416959
0.00417835
0.00418836
0.00419989
0.00421329
0.00422905
0.00424784
0.00427056
0.00429839
0.00433299
0.00437672
0.00443305
0.00450817
0.00459929
0.0047105
0.0048472
0.00501658
0.00522848
0.00549637
0.00584009
0.00628746
0.00683902
0.00742377
0.00814277
0.00881394
0.00988427
0.0107292
0.0125649
0.0139639
0.0178632
0.0275007
0.107725
6.27245
0.00416432
0.00417237
0.00418152
0.00419199
0.00420408
0.00421814
0.0042347
0.00425447
0.00427838
0.00430772
0.00434424
0.00439046
0.00445009
0.00452975
0.0046266
0.00474506
0.00489102
0.0050723
0.00529974
0.00558819
0.00595971
0.00643822
0.00698333
0.00755427
0.00826535
0.00891328
0.00996912
0.0107852
0.0125905
0.0140043
0.0179021
0.0291268
0.218285
10.6667
0.00416686
0.00417525
0.00418479
0.00419575
0.0042084
0.00422314
0.0042405
0.00426125
0.00428637
0.00431721
0.00435564
0.00440432
0.00446721
0.0045513
0.00465369
0.00477912
0.00493387
0.00512637
0.00536831
0.00567571
0.00607257
0.00655978
0.00709474
0.00764963
0.00834256
0.00897071
0.00998653
0.0107903
0.0125097
0.0139683
0.0177475
0.0296861
0.31825
16.2879
0.0041695
0.00417825
0.00418821
0.00419968
0.00421294
0.0042284
0.00424663
0.00426843
0.00429486
0.00432734
0.00436785
0.00441924
0.0044857
0.0045747
0.00468329
0.00481657
0.00498138
0.00518686
0.00544579
0.00577579
0.00620335
0.0066836
0.00721127
0.00775322
0.00843577
0.00904371
0.0100415
0.010825
0.0125095
0.0140159
0.0178565
0.0361516
0.665056
23.1694
0.00417226
0.00418138
0.00419178
0.00420378
0.00421767
0.00423388
0.00425301
0.0042759
0.00430367
0.00433783
0.00438048
0.00443463
0.00450475
0.00459875
0.00471364
0.0048549
0.00502989
0.00524849
0.00552458
0.00587736
0.00632063
0.00679282
0.00731161
0.00784031
0.00850961
0.00909962
0.0100728
0.0108454
0.0124691
0.0140014
0.0178418
0.0415513
1.09202
30.7757
0.00417513
0.00418463
0.00419549
0.00420803
0.00422258
0.00423956
0.00425961
0.00428362
0.00431278
0.00434867
0.00439352
0.0044505
0.00452435
0.00462345
0.00474475
0.00489411
0.00507941
0.00531128
0.0056047
0.00598043
0.00642472
0.00688852
0.00739667
0.00791225
0.0085647
0.00913909
0.0100803
0.0108487
0.0124031
0.0139426
0.0177746
0.0451836
1.51025
38.542
0.00417805
0.00418795
0.00419928
0.0042124
0.00422765
0.00424544
0.00426647
0.00429166
0.00432229
0.00436003
0.00440722
0.00446725
0.00454514
0.00464978
0.00477811
0.00493644
0.00513329
0.0053802
0.00569354
0.00609139
0.00652976
0.00698688
0.00748717
0.00799353
0.00863568
0.00919791
0.0101177
0.0108913
0.0123906
0.0140087
0.0191701
0.0962703
2.5213
45.9807
0.00418105
0.00419135
0.00420317
0.00421688
0.00423283
0.00425145
0.00427346
0.00429986
0.00433196
0.00437154
0.00442109
0.00448414
0.00456603
0.00467614
0.00481136
0.00497844
0.00518649
0.00544794
0.00578041
0.00618796
0.00661903
0.00706827
0.00755814
0.00805317
0.0086794
0.0092291
0.0101199
0.0108917
0.012324
0.013986
0.0191693
0.121065
3.3165
52.7304
0.00418422
0.00419496
0.00420729
0.00422163
0.00423831
0.0042578
0.00428085
0.0043085
0.00434215
0.00438368
0.00443569
0.00450192
0.004588
0.00470384
0.0048463
0.00502256
0.00524241
0.00551916
0.00587184
0.00627907
0.00670273
0.00714432
0.00762371
0.008108
0.00871884
0.00925734
0.010121
0.010897
0.012278
0.0140028
0.019628
0.164288
4.21139
58.517
0.00418749
0.00419868
0.00421154
0.00422654
0.004244
0.00426441
0.00428854
0.00431751
0.0043528
0.00439638
0.00445099
0.0045206
0.00461114
0.0047331
0.00488331
0.00506949
0.00530214
0.00559563
0.00596638
0.00636825
0.00678513
0.00722056
0.00769079
0.0081663
0.00876244
0.0092944
0.0101309
0.0109221
0.0122613
0.0141992
0.0238742
0.272649
5.37755
63.2536
0.0041909
0.00420257
0.00421598
0.00423166
0.00424992
0.00427127
0.00429653
0.00432686
0.00436383
0.00440951
0.0044668
0.00453986
0.00463495
0.00476314
0.00492125
0.0051175
0.00536313
0.00567354
0.00605319
0.00644931
0.00685838
0.00728651
0.00774569
0.00821165
0.00879142
0.00931489
0.0101227
0.0109248
0.0122107
0.0142466
0.0252494
0.341716
6.20373
66.9329
0.00419444
0.00420662
0.00422062
0.00423701
0.00425613
0.00427848
0.00430492
0.00433669
0.00437543
0.00442335
0.00448349
0.00456023
0.0046602
0.00479508
0.00496172
0.00516892
0.00542956
0.0057589
0.00613994
0.00653091
0.00693283
0.00735492
0.00780357
0.00826337
0.00882603
0.00934855
0.0101274
0.0109534
0.0122037
0.0146744
0.0346049
0.499349
7.27201
69.6194
0.0041981
0.00421079
0.0042254
0.00424253
0.00426253
0.00428589
0.00431354
0.00434678
0.00438735
0.00443755
0.00450059
0.00458109
0.00468602
0.0048277
0.00500302
0.00522135
0.00549686
0.00584366
0.00621969
0.00660537
0.00699963
0.0074158
0.00785334
0.0083072
0.00885237
0.00937356
0.010123
0.0109706
0.0121878
0.0151999
0.0454242
0.658262
8.15953
71.4204
0.00420187
0.0042151
0.00423033
0.00424823
0.00426912
0.00429353
0.00432241
0.00435714
0.00439955
0.00445206
0.00451803
0.0046023
0.00471221
0.00486069
0.00504465
0.00527403
0.00556388
0.00592052
0.00629089
0.00667072
0.00705665
0.00746622
0.00789197
0.00833865
0.0088658
0.00938358
0.010101
0.010967
0.0121244
0.0153366
0.0505349
0.765694
8.72782
72.4544
0.00420582
0.00421963
0.00423552
0.00425422
0.00427606
0.00430156
0.00433175
0.00436806
0.00441242
0.00446738
0.00453646
0.00462479
0.00474023
0.00489608
0.00508948
0.00533103
0.0056366
0.00599718
0.00636212
0.00673667
0.00711462
0.00751871
0.00793281
0.00837507
0.00888373
0.00940312
0.0100908
0.0109799
0.012126
0.0163205
0.0681112
0.956488
9.49635
72.8453
0.00420996
0.00422439
0.00424097
0.00426051
0.00428334
0.00430999
0.00434154
0.00437956
0.00442599
0.00448355
0.00455594
0.00464856
0.0047697
0.00493321
0.00513652
0.00539088
0.00571263
0.00607074
0.00643008
0.00679931
0.00716916
0.0075678
0.00796992
0.00840805
0.00889744
0.00941863
0.0100752
0.0109858
0.0121217
0.0173347
0.0851039
1.13025
10.1169
72.6971
0.00421423
0.00422932
0.00424662
0.00426706
0.00429094
0.0043188
0.00435178
0.00439155
0.00444015
0.00450045
0.00457634
0.00467348
0.00480068
0.00497219
0.00518603
0.00545399
0.00578812
0.00614216
0.00649596
0.00686018
0.00722216
0.00761587
0.00800621
0.00844147
0.00891178
0.00943616
0.010065
0.0109993
0.0122171
0.0196338
0.115055
1.36493
10.8695
72.115
0.0042187
0.00423447
0.00425252
0.00427388
0.00429884
0.00432793
0.00436239
0.00440394
0.00445476
0.00451784
0.00459726
0.00469899
0.00483227
0.0050118
0.00523618
0.00551757
0.0058584
0.00620795
0.00655571
0.00691454
0.00726801
0.00765644
0.00803421
0.00846597
0.00891633
0.00944213
0.0100395
0.010992
0.0122278
0.0210231
0.135024
1.53883
11.4236
71.1879
0.00422339
0.0042399
0.00425874
0.00428107
0.00430716
0.00433755
0.00437356
0.004417
0.00447016
0.00453619
0.00461937
0.00472596
0.00486573
0.0050537
0.00528931
0.00558473
0.00592729
0.00627246
0.00661429
0.00696798
0.00731326
0.00769678
0.00806241
0.00849158
0.0089225
0.00945071
0.0100208
0.0109958
0.0123792
0.0240649
0.169583
1.77619
12.173
69.9964
0.00422832
0.0042456
0.00426526
0.0042886
0.00431588
0.00434762
0.00438525
0.00443067
0.00448629
0.00455539
0.0046425
0.00475418
0.00490072
0.00509742
0.00534476
0.00565435
0.00599368
0.00633441
0.00667022
0.00701875
0.00735586
0.00773448
0.00808797
0.00851462
0.00892618
0.00945615
0.00999977
0.0109987
0.0125882
0.0276793
0.207275
2.02043
12.9981
68.6012
0.00423348
0.00425156
0.00427209
0.00429649
0.00432499
0.00435814
0.00439748
0.00444495
0.00450313
0.00457545
0.00466665
0.00478365
0.00493725
0.00514298
0.00540246
0.00572289
0.00605768
0.0063939
0.00672363
0.00706699
0.00739591
0.00776964
0.00811098
0.00853514
0.00892739
0.00945854
0.00997731
0.0110039
0.0128861
0.0321464
0.25033
2.28592
13.9768
67.0571
0.00423885
0.00425777
0.00427921
0.0043047
0.00433448
0.0043691
0.0044102
0.00445981
0.00452066
0.00459632
0.00469178
0.00481433
0.00497525
0.00519034
0.00546222
0.00578922
0.00611936
0.00645104
0.00677464
0.00711281
0.00743358
0.00780238
0.00813168
0.00855327
0.0089265
0.00945816
0.00995365
0.0110133
0.0132775
0.0374308
0.298141
2.57589
15.1613
65.4106
0.00424456
0.00426435
0.00428676
0.0043134
0.00434452
0.00438069
0.00442365
0.00447553
0.0045392
0.00461841
0.00471839
0.00484681
0.00501549
0.00524037
0.00552498
0.00585446
0.0061799
0.006507
0.00682453
0.00715752
0.00747039
0.00783418
0.00815196
0.0085707
0.00892595
0.00945734
0.00993511
0.0110479
0.0139714
0.0453118
0.362426
2.94398
16.7299
63.7023
0.00425058
0.00427129
0.00429471
0.00432255
0.00435506
0.00439284
0.00443774
0.00449198
0.00455858
0.00464146
0.00474612
0.00488061
0.00505727
0.00529215
0.00558931
0.00591722
0.00623774
0.00656007
0.0068713
0.00719893
0.00750357
0.00786221
0.0081679
0.00858358
0.00891995
0.00945038
0.00990729
0.0110651
0.0145166
0.0517237
0.416781
3.2839
18.3256
62.012
0.00425687
0.00427854
0.00430302
0.00433213
0.00436609
0.00440557
0.00445252
0.00450926
0.00457896
0.00466575
0.00477539
0.00491638
0.00510155
0.00534697
0.00565554
0.00597961
0.00629536
0.00661307
0.00691834
0.00724071
0.00753789
0.00789117
0.00818635
0.00859817
0.00891866
0.00944722
0.0098976
0.0111679
0.0159104
0.0649298
0.511584
3.77745
20.2334
60.3539
0.00426356
0.00428622
0.00431181
0.00434224
0.00437771
0.00441895
0.00446804
0.00452738
0.0046003
0.00469113
0.00480593
0.00495359
0.00514745
0.00540339
0.00571954
0.0060395
0.00635023
0.00666307
0.00696208
0.00727901
0.00756827
0.00791612
0.00819999
0.00860787
0.00891118
0.00943744
0.00987735
0.0112485
0.017086
0.076111
0.5944
4.24484
22.2477
58.7309
0.0042707
0.00429441
0.00432118
0.00435301
0.00439006
0.00443317
0.00448451
0.00454659
0.00462292
0.00471802
0.00483825
0.00499294
0.00519586
0.00546234
0.0057826
0.00609834
0.00640393
0.00671177
0.0070045
0.00731585
0.00759723
0.00793943
0.00821218
0.00861564
0.00890222
0.00942567
0.00985867
0.0113534
0.0184792
0.0888454
0.687169
4.77306
24.4626
57.1377
0.00427827
0.00430307
0.00433109
0.00436439
0.00440311
0.00444821
0.00450196
0.00456698
0.00464696
0.00474663
0.0048727
0.00503497
0.00524755
0.00552466
0.00584581
0.00615739
0.00645801
0.0067609
0.00704766
0.00735338
0.00762767
0.0079637
0.00822708
0.0086247
0.00889813
0.00941819
0.00986828
0.0116383
0.0213897
0.112078
0.835587
5.5131
27.0121
55.5777
0.00428621
0.00431214
0.00434148
0.00437629
0.00441675
0.00446392
0.00452016
0.00458822
0.00467197
0.00477636
0.00490846
0.00507847
0.00530081
0.00558808
0.00590679
0.00621399
0.0065094
0.00680712
0.00708761
0.00738753
0.00765415
0.00798404
0.00823688
0.00862896
0.00888708
0.00940382
0.00986129
0.0118497
0.0236017
0.130111
0.958135
6.21227
29.7264
54.0683
0.00429469
0.00432182
0.00435255
0.00438898
0.00443128
0.00448065
0.00453955
0.00461087
0.00469867
0.00480814
0.00494669
0.005125
0.00535755
0.00565369
0.005968
0.00627081
0.00656104
0.00685351
0.00712789
0.00742183
0.00768119
0.0080044
0.00824769
0.00863307
0.00887801
0.00939164
0.00987565
0.0122089
0.0269397
0.155427
1.11891
7.0673
32.5325
52.6165
0.00430354
0.00433193
0.00436412
0.00440224
0.00444649
0.00449819
0.00455992
0.00463471
0.00472681
0.0048417
0.00498718
0.00517433
0.00541736
0.00571927
0.00602929
0.00632778
0.00661303
0.00690031
0.00716889
0.00745676
0.00770961
0.00802549
0.00826091
0.00863799
0.00887346
0.00938637
0.0099411
0.0129162
0.0327409
0.195406
1.34843
8.13572
35.3098
51.222
0.00431283
0.00434251
0.00437622
0.0044161
0.00446237
0.0045165
0.00458117
0.00465957
0.00475615
0.00487666
0.00502929
0.00522548
0.0054787
0.00578327
0.00608891
0.00638294
0.00666307
0.00694502
0.00720766
0.00748935
0.00773534
0.0080439
0.0082708
0.00863974
0.00886477
0.00937858
0.010008
0.0136434
0.0384514
0.233988
1.57091
9.20725
38.0248
49.9016
0.00432289
0.00435395
0.00438929
0.00443103
0.00447945
0.00453618
0.00460399
0.00468624
0.0047876
0.00491409
0.00507429
0.00527988
0.00554292
0.0058472
0.00614831
0.00643772
0.00671263
0.00698908
0.00724571
0.00752106
0.00776026
0.00806123
0.00827992
0.00864026
0.00885624
0.00937478
0.0101134
0.014638
0.0458957
0.282324
1.83753
10.4097
40.6916
48.6626
0.00433372
0.00436624
0.00440332
0.00444704
0.00449775
0.00455724
0.00462839
0.00471474
0.00482117
0.00495401
0.00512218
0.00533744
0.00560969
0.00591081
0.00620729
0.00649195
0.00676155
0.00703237
0.00728297
0.00755182
0.00778425
0.00807742
0.00828814
0.00863954
0.00884786
0.00937645
0.0102658
0.0159481
0.0552646
0.340822
2.14687
11.7398
43.2979
47.5049
0.00434511
0.00437916
0.00441805
0.00446383
0.00451694
0.00457932
0.00465398
0.00474461
0.00485634
0.0049958
0.00517221
0.00539717
0.00567727
0.00597336
0.00626516
0.00654497
0.00680917
0.00707426
0.00731866
0.00758094
0.00780623
0.00809166
0.0082936
0.00863649
0.00883576
0.00937516
0.0104028
0.0171206
0.0634264
0.391878
2.42388
13.014
45.8507
46.4439
0.00435736
0.00439307
0.00443392
0.00448195
0.00453768
0.00460326
0.00468178
0.00477718
0.00489481
0.00504165
0.00522718
0.00546229
0.0057473
0.00603844
0.00632578
0.00660085
0.00686
0.00711938
0.00735819
0.00761355
0.00783315
0.00810942
0.00830606
0.00863773
0.00883987
0.00942427
0.0108685
0.020364
0.0838911
0.504257
2.93377
14.7664
48.2852
45.4489
0.00437066
0.00440813
0.00445111
0.00450153
0.00456009
0.0046291
0.00471179
0.00481232
0.00493629
0.005091
0.00528603
0.00553087
0.0058175
0.00610359
0.00638631
0.00665646
0.00691036
0.00716376
0.00739671
0.00764489
0.00785827
0.00812528
0.00831557
0.00863679
0.00884109
0.00947794
0.0113423
0.0234712
0.102402
0.602659
3.37677
16.4012
50.6888
44.5371
0.00438466
0.00442402
0.00446923
0.0045222
0.00458377
0.00465644
0.00474358
0.00484958
0.00498032
0.00514336
0.00534821
0.00560216
0.00588765
0.0061688
0.00644696
0.00671218
0.00696086
0.00720824
0.00743536
0.00767624
0.00788352
0.00814104
0.00832551
0.00863663
0.00884985
0.00957286
0.0120592
0.0279267
0.127798
0.731121
3.92309
18.2259
52.9624
43.6956
0.00439958
0.00444095
0.00448855
0.00454425
0.00460906
0.00468568
0.00477762
0.00488954
0.00502756
0.00519949
0.00541442
0.00567666
0.00595839
0.00623467
0.00650831
0.00676858
0.00701208
0.00725338
0.00747474
0.00770819
0.00790959
0.00815729
0.00833686
0.00863883
0.00887295
0.00974224
0.0131882
0.0345244
0.163276
0.89997
4.60012
20.2509
55.0638
42.9116
0.0044159
0.00445945
0.00450963
0.0045683
0.00463665
0.00471756
0.00481474
0.00493309
0.00507899
0.00526032
0.00548527
0.00575315
0.00603
0.00630134
0.00657034
0.00682551
0.0070637
0.00729874
0.00751421
0.00774002
0.00793533
0.00817313
0.00834782
0.00864261
0.00890763
0.00997557
0.01462
0.0424357
0.203764
1.08549
5.32766
22.3331
57.0279
42.1803
0.00443333
0.00447923
0.00453218
0.00459403
0.0046662
0.00475176
0.0048546
0.00497989
0.00513421
0.00532536
0.00555988
0.00583006
0.00610214
0.00636865
0.00663307
0.00688316
0.00711608
0.00734483
0.00755443
0.0077725
0.00796182
0.00818963
0.00836049
0.00865173
0.00897054
0.0103505
0.0167595
0.0536899
0.258617
1.32463
6.21593
24.5738
58.8015
41.4854
0.00445194
0.00450036
0.00455629
0.00462158
0.00469791
0.00478851
0.00489752
0.00503034
0.0051937
0.00539502
0.00563835
0.00590782
0.00617529
0.00643713
0.00669709
0.00694216
0.0071699
0.00739237
0.00759618
0.00780645
0.00799002
0.00820782
0.008377
0.00867248
0.0090913
0.0110056
0.0202429
0.0710039
0.338114
1.64994
7.33647
26.9793
60.3697
40.8044
0.00447229
0.00452347
0.00458264
0.00465172
0.00473262
0.00482878
0.00494456
0.0050856
0.00525864
0.00547028
0.00572113
0.00598702
0.00624988
0.00650707
0.00676256
0.00700257
0.0072251
0.0074412
0.00763915
0.00784148
0.00801927
0.00822742
0.00839735
0.00870942
0.00928004
0.0119934
0.025141
0.09388
0.43716
2.03519
8.60509
29.4008
61.806
40.1309
0.00449422
0.0045484
0.0046111
0.00468433
0.00477023
0.0048725
0.0049957
0.00514567
0.00532892
0.00555052
0.00580529
0.00606752
0.00632595
0.00657867
0.00682982
0.00706487
0.00728228
0.00749205
0.00768423
0.00787865
0.008051
0.00825056
0.00842762
0.00878409
0.00964829
0.0137445
0.0333194
0.130097
0.584751
2.5721
10.2293
32.0036
63.014
39.4327
0.00451777
0.00457519
0.00464172
0.00471946
0.00481083
0.00491974
0.00505099
0.00521048
0.00540421
0.00563483
0.00588999
0.0061487
0.00640287
0.00665133
0.00689825
0.00712846
0.00734084
0.00754437
0.00773077
0.0079174
0.00808466
0.00827804
0.00847253
0.00892039
0.0102761
0.0165623
0.0456142
0.181009
0.7794
3.24026
12.1116
34.6443
64.0818
38.6978
0.00454339
0.00460437
0.00467509
0.0047578
0.00485522
0.00497146
0.00511152
0.00528119
0.00548541
0.00572311
0.00597621
0.00623151
0.00648159
0.00672597
0.00696886
0.00719439
0.00740189
0.00759933
0.00778011
0.00795931
0.00812283
0.00831592
0.00855381
0.00920378
0.0115069
0.0217819
0.0670389
0.263859
1.07366
4.16712
14.3896
37.4356
64.8944
37.8859
0.00457132
0.0046362
0.00471154
0.00479976
0.00490384
0.00502815
0.00517774
0.00535802
0.005572
0.00581267
0.00606372
0.0063157
0.00656186
0.00680238
0.00704142
0.00726249
0.00746532
0.00765693
0.00783236
0.00800507
0.00816813
0.00837523
0.00871458
0.00979966
0.0139406
0.0314505
0.103932
0.395909
1.50526
5.40244
17.0757
40.3055
65.5058
36.968
0.0046014
0.00467053
0.00475093
0.00484517
0.00495657
0.00508962
0.00524934
0.0054402
0.005662
0.00590296
0.00615203
0.00640085
0.00664338
0.00688038
0.00711589
0.00733289
0.00753142
0.00771772
0.00788862
0.00805749
0.00822964
0.00848942
0.00908024
0.0111669
0.0191811
0.050839
0.172203
0.619764
2.17032
7.10773
20.3098
43.3118
65.8274
35.8757
0.00463411
0.00470791
0.00479386
0.00489476
0.00501417
0.00515668
0.00532691
0.00552753
0.00575272
0.00599386
0.00624094
0.00648671
0.00672582
0.0069596
0.00719193
0.0074053
0.00760007
0.00778201
0.00795055
0.00812334
0.00833349
0.00875678
0.0100042
0.0145134
0.0311042
0.0914485
0.302547
1.0058
3.19535
9.41823
24.0451
46.3645
66.0134
34.6013
0.00466895
0.00474763
0.00483938
0.0049472
0.00507484
0.00522675
0.0054066
0.00561364
0.00584033
0.00608114
0.00632594
0.00656855
0.00680428
0.00703494
0.0072643
0.00747447
0.0076662
0.00784554
0.0080168
0.00821212
0.00852726
0.00935438
0.0120729
0.021612
0.0545061
0.16434
0.514299
1.56984
4.54504
12.1539
27.914
49.2649
65.5394
33.1484
0.00470012
0.0047832
0.00488017
0.0049942
0.00512909
0.00528885
0.00547498
0.00568487
0.00591271
0.00615301
0.00639574
0.0066356
0.00686848
0.0070966
0.00732364
0.00753153
0.00772158
0.00790119
0.00808295
0.00832772
0.00884332
0.0104086
0.015701
0.0336847
0.0926342
0.277143
0.822654
2.33334
6.20338
15.109
31.5427
51.4795
65.0717
31.8708
0.00472777
0.00481477
0.00491639
0.00503591
0.00517708
0.00534327
0.00553349
0.00574565
0.00597433
0.006214
0.00645476
0.0066921
0.00692241
0.00714828
0.00737327
0.00757934
0.00776858
0.0079511
0.00815191
0.00847721
0.00930255
0.0119746
0.0209896
0.0506662
0.143687
0.418955
1.18173
3.15394
7.88614
17.9128
34.6523
53.3996
65.4106
30.0624
0.00412944
0.00413362
0.00413838
0.00414384
0.00415015
0.0041575
0.00416613
0.00417639
0.0041887
0.00420366
0.0042221
0.00424521
0.0042747
0.00431359
0.0043606
0.00441763
0.00448708
0.00457212
0.00467693
0.00480714
0.00497055
0.00517817
0.00544616
0.00579874
0.00627513
0.00693718
0.00790837
0.00933982
0.0117864
0.0133904
0.0190228
0.0298107
0.0824469
0.136052
0.00413055
0.0041348
0.00413964
0.00414517
0.00415154
0.00415895
0.00416765
0.00417794
0.00419028
0.00420523
0.00422362
0.00424659
0.00427582
0.00431424
0.00436056
0.0044166
0.00448467
0.00456779
0.00466991
0.00479639
0.00495455
0.00515475
0.00541208
0.00574908
0.00620194
0.00682794
0.00773884
0.00910619
0.0114056
0.0130871
0.0184885
0.0278488
0.0809038
0.128554
0.00413171
0.00413603
0.00414093
0.00414653
0.00415297
0.00416044
0.00416918
0.00417951
0.00419186
0.0042068
0.00422511
0.00424793
0.00427688
0.00431479
0.00436037
0.00441537
0.004482
0.00456311
0.00466245
0.00478508
0.00493788
0.00513052
0.00537704
0.00569835
0.00612767
0.00671773
0.00756909
0.00884602
0.010983
0.0127555
0.0179624
0.0253229
0.0790462
0.121873
0.00413292
0.00413731
0.00414228
0.00414794
0.00415445
0.00416197
0.00417077
0.00418114
0.00419351
0.00420844
0.0042267
0.00424938
0.00427807
0.00431551
0.00436042
0.00441447
0.00447979
0.0045591
0.00465599
0.00477523
0.00492336
0.0051095
0.00534685
0.00565501
0.0060649
0.00662572
0.0074297
0.00863012
0.0106381
0.0126285
0.0178252
0.0246518
0.0785279
0.115756
0.0041342
0.00413865
0.00414369
0.00414941
0.00415597
0.00416356
0.0041724
0.00418281
0.0041952
0.00421011
0.00422831
0.00425085
0.00427927
0.00431621
0.00436042
0.00441351
0.00447749
0.00455498
0.00464938
0.00476522
0.00490869
0.00508838
0.00531668
0.00561192
0.00600286
0.00653527
0.00729345
0.0084196
0.0102812
0.0125086
0.017579
0.0234273
0.0773853
0.110164
0.0041355
0.00414001
0.0041451
0.00415089
0.00415751
0.00416514
0.00417403
0.00418448
0.00419688
0.00421177
0.0042299
0.00425229
0.00428044
0.00431689
0.00436042
0.00441256
0.00447527
0.00455103
0.00464312
0.00475584
0.00489507
0.00506897
0.00528925
0.00557324
0.00594793
0.00645639
0.00717688
0.00824298
0.00998974
0.0124219
0.0176136
0.0232945
0.0775825
0.104964
0.00413684
0.00414141
0.00414656
0.0041524
0.00415908
0.00416677
0.00417571
0.00418618
0.00419859
0.00421347
0.00423152
0.00425376
0.00428162
0.00431756
0.00436039
0.00441159
0.00447302
0.00454708
0.00463688
0.00474654
0.00488166
0.00504999
0.00526263
0.00553598
0.00589549
0.00638182
0.00706802
0.00808023
0.00972645
0.0122898
0.0176266
0.0232679
0.0787113
0.100272
0.00413812
0.00414273
0.00414793
0.00415382
0.00416054
0.00416827
0.00417722
0.00418771
0.0042001
0.0042149
0.00423283
0.00425484
0.00428233
0.00431765
0.00435963
0.0044097
0.00446963
0.00454172
0.00462891
0.00473511
0.0048656
0.0050277
0.00523184
0.0054934
0.00583616
0.00629811
0.00694673
0.00789992
0.00943729
0.011988
0.0174029
0.0231903
0.0799145
0.0957265
0.00413936
0.00414402
0.00414925
0.00415518
0.00416192
0.00416967
0.00417863
0.00418909
0.00420142
0.00421613
0.00423388
0.00425561
0.00428264
0.00431722
0.00435823
0.004407
0.00446524
0.00453511
0.00461938
0.00472175
0.00484716
0.00500245
0.00519735
0.00544615
0.00577086
0.00620657
0.00681491
0.00770453
0.00912526
0.0115681
0.0168472
0.0230029
0.0801667
0.0912418
0.00414056
0.00414525
0.00415052
0.00415647
0.00416323
0.00417098
0.00417994
0.00419037
0.00420263
0.00421722
0.00423477
0.00425619
0.00428273
0.00431653
0.00435652
0.00440398
0.00446052
0.00452818
0.00460961
0.00470829
0.00482887
0.00497779
0.00516418
0.00540143
0.00571006
0.00612279
0.00669656
0.0075326
0.00885772
0.0111327
0.0161389
0.0228451
0.0822378
0.0871331
0.0041417
0.00414641
0.0041517
0.00415766
0.00416443
0.00417217
0.0041811
0.00419147
0.00420363
0.00421806
0.00423536
0.00425639
0.00428236
0.00431529
0.00435415
0.00440017
0.00445485
0.00452015
0.00459855
0.00469333
0.00480887
0.00495121
0.00512889
0.00535444
0.00564695
0.00603684
0.00657665
0.00736024
0.00859288
0.0107015
0.0152594
0.0226092
0.0837537
0.0830674
0.00414274
0.00414747
0.00415277
0.00415874
0.0041655
0.00417321
0.00418208
0.00419237
0.00420441
0.00421863
0.00423565
0.00425626
0.0042816
0.00431357
0.00435121
0.00439568
0.00444842
0.00451126
0.00458656
0.0046774
0.0047879
0.00492376
0.005093
0.00530736
0.00558469
0.00595345
0.00646243
0.00719929
0.00835165
0.0103179
0.014507
0.0222549
0.0857463
0.0789915
0.00414363
0.00414836
0.00415365
0.0041596
0.00416632
0.00417397
0.00418276
0.00419291
0.00420477
0.00421873
0.00423537
0.00425544
0.00428
0.00431084
0.00434705
0.00438973
0.00444024
0.00450029
0.00457208
0.00465848
0.00476335