/*--------------------------------*- C++ -*----------------------------------*\
| =========                 |                                                 |
| \\      /  F ield         | OpenFOAM: The Open Source CFD Toolbox           |
|  \\    /   O peration     | Version:  2.3.0                                 |
|   \\  /    A nd           | Web:      www.OpenFOAM.org                      |
|    \\/     M anipulation  |                                                 |
\*---------------------------------------------------------------------------*/
FoamFile
{
    version     2.0;
    format      ascii;
    class       volScalarField;
    location    "100";
    object      nut;
}
// * * * * * * * * * * * * * * * * * * * * * * * * * * * * * * * * * * * * * //

dimensions      [0 2 -1 0 0 0 0];

internalField   nonuniform List<scalar> 
14415
(
3.02547e-05
2.96949e-05
3.19781e-05
3.39553e-05
3.59502e-05
3.85377e-05
4.17834e-05
4.60399e-05
5.05364e-05
5.5866e-05
6.21794e-05
6.9208e-05
7.79627e-05
8.05337e-05
6.56188e-05
5.37074e-05
4.41792e-05
3.65412e-05
3.04057e-05
2.54696e-05
2.14939e-05
1.82974e-05
1.57296e-05
1.36996e-05
1.20924e-05
1.09352e-05
1.00641e-05
9.71185e-06
9.48771e-06
9.05907e-06
9.70765e-06
1.21488e-05
2.48556e-05
7.03254e-06
3.22645e-05
3.03031e-05
3.30633e-05
3.55758e-05
3.76392e-05
4.02922e-05
4.36066e-05
4.75327e-05
5.21437e-05
5.75877e-05
6.4032e-05
7.16776e-05
8.07548e-05
8.09151e-05
6.5994e-05
5.4072e-05
4.45285e-05
3.68721e-05
3.07171e-05
2.57619e-05
2.1768e-05
1.85559e-05
1.59739e-05
1.39354e-05
1.23192e-05
1.11642e-05
1.02947e-05
9.90273e-06
9.64719e-06
9.19032e-06
9.76749e-06
1.21272e-05
2.46368e-05
7.6387e-06
3.44157e-05
3.16641e-05
3.45514e-05
3.71449e-05
3.93167e-05
4.21889e-05
4.56881e-05
4.98055e-05
5.46566e-05
6.03689e-05
6.71036e-05
7.55916e-05
8.50719e-05
8.1185e-05
6.62768e-05
5.43608e-05
4.48163e-05
3.71538e-05
3.09893e-05
2.60237e-05
2.20189e-05
1.87979e-05
1.62071e-05
1.41657e-05
1.25451e-05
1.13987e-05
1.05356e-05
1.00935e-05
9.79483e-06
9.31917e-06
9.84479e-06
1.21304e-05
2.45756e-05
8.36568e-06
3.61042e-05
3.289e-05
3.61829e-05
3.88445e-05
4.13197e-05
4.47857e-05
4.85446e-05
5.29392e-05
5.75473e-05
6.35819e-05
7.06772e-05
7.90552e-05
8.89476e-05
8.13095e-05
6.64398e-05
5.45504e-05
4.50223e-05
3.73681e-05
3.12067e-05
2.62412e-05
2.22346e-05
1.90127e-05
1.64203e-05
1.43831e-05
1.27641e-05
1.16347e-05
1.07858e-05
1.02855e-05
9.9746e-06
9.4433e-06
9.96419e-06
1.2168e-05
2.46269e-05
9.02655e-06
3.82799e-05
3.4255e-05
3.82207e-05
4.11517e-05
4.30761e-05
4.63504e-05
5.0248e-05
5.47542e-05
6.00892e-05
6.63861e-05
7.37845e-05
8.251e-05
9.28078e-05
8.14764e-05
6.66386e-05
5.4771e-05
4.52558e-05
3.76079e-05
3.14477e-05
2.64813e-05
2.24722e-05
1.92492e-05
1.6655e-05
1.46225e-05
1.30056e-05
1.18942e-05
1.10631e-05
1.04872e-05
1.01605e-05
9.5759e-06
1.00755e-05
1.21936e-05
2.45797e-05
9.86991e-06
3.9428e-05
3.55878e-05
3.96274e-05
4.26912e-05
4.50604e-05
4.80364e-05
5.20853e-05
5.67452e-05
6.22517e-05
6.87557e-05
7.64035e-05
8.54312e-05
9.61066e-05
8.15569e-05
6.67704e-05
5.49397e-05
4.54498e-05
3.78183e-05
3.1668e-05
2.67079e-05
2.27023e-05
1.94836e-05
1.68921e-05
1.48692e-05
1.32589e-05
1.21709e-05
1.13479e-05
1.0689e-05
1.03441e-05
9.70644e-06
1.01862e-05
1.22352e-05
2.45963e-05
1.094e-05
3.97873e-05
3.66164e-05
4.10028e-05
4.41651e-05
4.66251e-05
5.01871e-05
5.44204e-05
5.9294e-05
6.50421e-05
7.18263e-05
7.98055e-05
8.92228e-05
0.000100114
8.162e-05
6.6891e-05
5.51022e-05
4.56418e-05
3.80304e-05
3.18934e-05
2.69425e-05
2.29429e-05
1.97313e-05
1.7145e-05
1.51344e-05
1.3534e-05
1.2473e-05
1.16339e-05
1.08959e-05
1.05279e-05
9.84118e-06
1.02939e-05
1.22832e-05
2.46139e-05
1.20101e-05
4.14685e-05
3.80687e-05
4.28571e-05
4.61034e-05
4.87189e-05
5.24591e-05
5.68785e-05
6.19785e-05
6.79904e-05
7.5076e-05
8.34132e-05
9.32594e-05
0.000100069
8.16666e-05
6.70041e-05
5.52638e-05
4.58382e-05
3.82514e-05
3.21311e-05
2.71926e-05
2.32016e-05
1.99996e-05
1.74206e-05
1.54248e-05
1.38374e-05
1.28026e-05
1.19246e-05
1.111e-05
1.07123e-05
9.98142e-06
1.03952e-05
1.23253e-05
2.46038e-05
1.3515e-05
4.31168e-05
3.95034e-05
4.47305e-05
4.80846e-05
5.09133e-05
5.48574e-05
5.94788e-05
6.48215e-05
7.11243e-05
7.85461e-05
8.72802e-05
9.76057e-05
9.99594e-05
8.1662e-05
6.70764e-05
5.53933e-05
4.60097e-05
3.84537e-05
3.23558e-05
2.74349e-05
2.34573e-05
2.02697e-05
1.77026e-05
1.57272e-05
1.41588e-05
1.31204e-05
1.22081e-05
1.13198e-05
1.08924e-05
1.01178e-05
1.04977e-05
1.23872e-05
2.46673e-05
1.51296e-05
4.48601e-05
4.11282e-05
4.66042e-05
5.00463e-05
5.31163e-05
5.72826e-05
6.21138e-05
6.77063e-05
7.4313e-05
8.20936e-05
9.12558e-05
0.000102102
9.98618e-05
8.16691e-05
6.71605e-05
5.55349e-05
4.61938e-05
3.86695e-05
3.25949e-05
2.76929e-05
2.37302e-05
2.05589e-05
1.80062e-05
1.60542e-05
1.45096e-05
1.34349e-05
1.24885e-05
1.1529e-05
1.1069e-05
1.02526e-05
1.05971e-05
1.24547e-05
2.47712e-05
1.73311e-05
4.65626e-05
4.28401e-05
4.87457e-05
5.22374e-05
5.55793e-05
6.00096e-05
6.50909e-05
7.0975e-05
7.7934e-05
8.61341e-05
9.58017e-05
0.0001083
9.96428e-05
8.1584e-05
6.71755e-05
5.56254e-05
4.63412e-05
3.88604e-05
3.28191e-05
2.79445e-05
2.40037e-05
2.08557e-05
1.83235e-05
1.64018e-05
1.48885e-05
1.37406e-05
1.2758e-05
1.17283e-05
1.1238e-05
1.03774e-05
1.07007e-05
1.25546e-05
2.50245e-05
1.98283e-05
4.8318e-05
4.45747e-05
5.06643e-05
5.42226e-05
5.7846e-05
6.25332e-05
6.78716e-05
7.40457e-05
8.13519e-05
8.99752e-05
0.000101081
0.000113029
9.96135e-05
8.16651e-05
6.73394e-05
5.58505e-05
4.66108e-05
3.91631e-05
3.31458e-05
2.82909e-05
2.43657e-05
2.12349e-05
1.87195e-05
1.68229e-05
1.53289e-05
1.40827e-05
1.30537e-05
1.19618e-05
1.14185e-05
1.05318e-05
1.07932e-05
1.26186e-05
2.51093e-05
2.33843e-05
5.01822e-05
4.65697e-05
5.29326e-05
5.65822e-05
6.05234e-05
6.5528e-05
7.11964e-05
7.7748e-05
8.63439e-05
9.54549e-05
0.000106174
0.000118841
9.94666e-05
8.16496e-05
6.74232e-05
5.60094e-05
4.68266e-05
3.94227e-05
3.34394e-05
2.86133e-05
2.47124e-05
2.16079e-05
1.91182e-05
1.72583e-05
1.57373e-05
1.44009e-05
1.33264e-05
1.21728e-05
1.15855e-05
1.06687e-05
1.08873e-05
1.27155e-05
2.53961e-05
2.90849e-05
5.18768e-05
4.85847e-05
5.52552e-05
5.897e-05
6.32436e-05
6.8605e-05
7.53518e-05
8.22942e-05
9.04719e-05
0.00010011
0.000111474
0.000119185
9.92252e-05
8.15572e-05
6.74441e-05
5.61178e-05
4.70025e-05
3.96521e-05
3.37115e-05
2.89227e-05
2.50542e-05
2.19846e-05
1.953e-05
1.77123e-05
1.61203e-05
1.46954e-05
1.35753e-05
1.23584e-05
1.17367e-05
1.07856e-05
1.0987e-05
1.28602e-05
2.596e-05
3.78685e-05
5.37572e-05
5.06472e-05
5.76245e-05
6.19993e-05
6.66029e-05
7.23168e-05
7.87142e-05
8.60579e-05
9.4697e-05
0.000104894
0.000116951
0.000118863
9.90749e-05
8.15531e-05
6.75524e-05
5.63123e-05
4.72631e-05
3.99648e-05
3.40656e-05
2.93129e-05
2.54765e-05
2.24408e-05
2.00224e-05
1.81911e-05
1.65312e-05
1.50202e-05
1.38448e-05
1.25729e-05
1.1898e-05
1.09285e-05
1.10835e-05
1.29911e-05
2.65598e-05
5.43851e-05
5.62144e-05
5.34674e-05
6.06472e-05
6.46249e-05
6.95872e-05
7.57017e-05
8.25579e-05
9.04201e-05
9.96555e-05
0.00011058
0.000124776
0.000118519
9.89084e-05
8.15395e-05
6.76573e-05
5.65092e-05
4.75317e-05
4.0291e-05
3.44387e-05
2.97276e-05
2.59292e-05
2.29343e-05
2.05604e-05
1.86553e-05
1.69278e-05
1.53348e-05
1.41025e-05
1.2778e-05
1.20502e-05
1.10654e-05
1.11787e-05
1.3148e-05
2.77643e-05
9.71303e-05
5.81405e-05
5.59245e-05
6.34257e-05
6.75515e-05
7.29227e-05
7.94938e-05
8.68773e-05
9.53496e-05
0.000106205
0.000117836
0.000131579
0.000118004
9.85976e-05
8.14072e-05
6.76641e-05
5.6626e-05
4.77366e-05
4.05684e-05
3.4777e-05
3.01213e-05
2.63749e-05
2.34356e-05
2.10889e-05
1.90767e-05
1.72813e-05
1.56083e-05
1.43261e-05
1.29483e-05
1.21826e-05
1.1184e-05
1.12815e-05
1.3377e-05
3.04204e-05
0.000168958
6.01353e-05
5.8421e-05
6.61447e-05
7.04625e-05
7.69474e-05
8.39883e-05
9.18945e-05
0.000100927
0.000111444
0.00012383
0.000138496
0.000117553
9.83511e-05
8.13406e-05
6.77392e-05
5.68139e-05
4.80146e-05
4.09215e-05
3.51937e-05
3.05962e-05
2.69058e-05
2.40261e-05
2.16356e-05
1.95222e-05
1.76559e-05
1.59089e-05
1.45668e-05
1.31457e-05
1.23238e-05
1.13245e-05
1.13818e-05
1.36186e-05
3.60995e-05
0.000279029
6.29247e-05
6.18328e-05
6.98206e-05
7.44128e-05
8.06862e-05
8.82615e-05
9.68084e-05
0.000106582
0.000117945
0.000131331
0.000138379
0.000116964
9.79787e-05
8.1163e-05
6.77151e-05
5.69141e-05
4.82168e-05
4.12104e-05
3.55582e-05
3.10316e-05
2.74112e-05
2.45805e-05
2.20885e-05
1.98795e-05
1.79471e-05
1.61286e-05
1.47423e-05
1.3276e-05
1.24268e-05
1.14287e-05
1.14945e-05
1.44017e-05
6.59417e-05
0.00043801
6.51129e-05
6.47204e-05
7.28894e-05
7.77426e-05
8.44552e-05
9.25285e-05
0.000101679
0.000112148
0.000124298
0.000138603
0.000137651
0.000116482
9.77158e-05
8.10933e-05
6.77981e-05
5.71191e-05
4.85207e-05
4.15971e-05
3.60166e-05
3.15564e-05
2.80018e-05
2.51425e-05
2.25614e-05
2.02669e-05
1.82691e-05
1.63916e-05
1.49478e-05
1.34526e-05
1.25476e-05
1.1565e-05
1.15927e-05
1.47977e-05
8.50115e-05
0.000622013
6.74443e-05
6.7833e-05
7.62218e-05
8.14351e-05
8.86771e-05
9.73627e-05
0.000107259
0.000118595
0.000133016
0.000148493
0.000136759
0.000115844
9.73047e-05
8.08865e-05
6.77522e-05
5.7204e-05
4.87137e-05
4.18831e-05
3.63853e-05
3.2004e-05
2.85291e-05
2.55686e-05
2.29061e-05
2.05364e-05
1.84844e-05
1.65534e-05
1.50736e-05
1.35498e-05
1.26212e-05
1.1658e-05
1.17362e-05
1.78547e-05
0.00014856
0.000837023
7.05508e-05
7.17221e-05
8.03779e-05
8.59925e-05
9.37812e-05
0.000103091
0.000113716
0.000125869
0.000139915
0.00015638
0.000135875
0.000115219
9.69121e-05
8.07024e-05
6.77325e-05
5.73173e-05
4.8937e-05
4.22009e-05
3.67872e-05
3.2486e-05
2.90231e-05
2.59696e-05
2.32322e-05
2.07944e-05
1.86911e-05
1.67137e-05
1.51959e-05
1.36527e-05
1.26868e-05
1.174e-05
1.1834e-05
2.03945e-05
0.000204726
0.00103422
7.30755e-05
7.50577e-05
8.38876e-05
8.99081e-05
9.81934e-05
0.000108093
0.000119428
0.0001324
0.000147385
0.000157879
0.000135011
0.000114618
9.65455e-05
8.05454e-05
6.77411e-05
5.74598e-05
4.91901e-05
4.25491e-05
3.72208e-05
3.30011e-05
2.94843e-05
2.6349e-05
2.35432e-05
2.1046e-05
1.88943e-05
1.68787e-05
1.53211e-05
1.37664e-05
1.27595e-05
1.18205e-05
1.19287e-05
2.20923e-05
0.000243318
0.00121433
7.58385e-05
7.84506e-05
8.75396e-05
9.39986e-05
0.00010285
0.000113419
0.000125545
0.00013944
0.000155492
0.000156668
0.000134079
0.000113942
9.61014e-05
8.03111e-05
6.76724e-05
5.75271e-05
4.93719e-05
4.28318e-05
3.75961e-05
3.34421e-05
2.98313e-05
2.66206e-05
2.37527e-05
2.11943e-05
1.90009e-05
1.69548e-05
1.53703e-05
1.38158e-05
1.2782e-05
1.19037e-05
1.28693e-05
4.43074e-05
0.0003461
0.00136981
7.87149e-05
8.21359e-05
9.13297e-05
9.82739e-05
0.000107621
0.000118818
0.000131683
0.000146437
0.00016348
0.000155583
0.00013327
0.000113383
9.57666e-05
8.01781e-05
6.76997e-05
5.76852e-05
4.96394e-05
4.31952e-05
3.80478e-05
3.38932e-05
3.01967e-05
2.69167e-05
2.39901e-05
2.13837e-05
1.91487e-05
1.70738e-05
1.54559e-05
1.38966e-05
1.28254e-05
1.19781e-05
1.29882e-05
5.36407e-05
0.000403819
0.00148199
8.24219e-05
8.68305e-05
9.6309e-05
0.000104004
0.000114022
0.000126084
0.000139948
0.000154304
0.000172478
0.000154402
0.000132381
0.000112759
9.53807e-05
8.0006e-05
6.76971e-05
5.78213e-05
4.98922e-05
4.35503e-05
3.84978e-05
3.42869e-05
3.05133e-05
2.71723e-05
2.41929e-05
2.15452e-05
1.92735e-05
1.71751e-05
1.55281e-05
1.39706e-05
1.28716e-05
1.20646e-05
1.33905e-05
6.9001e-05
0.000464435
0.0015625
8.55443e-05
9.06269e-05
0.000100334
0.000108663
0.000119233
0.00013204
0.000146736
0.000163625
0.000177393
0.000153169
0.00013144
0.000112083
9.49436e-05
7.97859e-05
6.76493e-05
5.79159e-05
5.01082e-05
4.38749e-05
3.88968e-05
3.46012e-05
3.07573e-05
2.73562e-05
2.43265e-05
2.16442e-05
1.93406e-05
1.72275e-05
1.55552e-05
1.40114e-05
1.28955e-05
1.22419e-05
1.62258e-05
0.000104771
0.000543857
0.00160059
8.8889e-05
9.47081e-05
0.000104632
0.000113659
0.000124758
0.000138321
0.000153839
0.0001717
0.000175843
0.000151949
0.000130518
0.000111431
9.45333e-05
7.95946e-05
6.76322e-05
5.80429e-05
5.03581e-05
4.42346e-05
3.92727e-05
3.49023e-05
3.09951e-05
2.75472e-05
2.44748e-05
2.17634e-05
1.94301e-05
1.73041e-05
1.56066e-05
1.4075e-05
1.29324e-05
1.2343e-05
1.72584e-05
0.000123407
0.000591013
0.00160067
9.24623e-05
9.89163e-05
0.000109185
0.000118993
0.00013067
0.000145087
0.000161496
0.000180429
0.000174207
0.000150649
0.000129519
0.000110708
9.40578e-05
7.93448e-05
6.75619e-05
5.81223e-05
5.05507e-05
4.45453e-05
3.95444e-05
3.51065e-05
3.11428e-05
2.76553e-05
2.45466e-05
2.1815e-05
1.94566e-05
1.73295e-05
1.56115e-05
1.41052e-05
1.29559e-05
1.27124e-05
2.33782e-05
0.000164503
0.000657227
0.00158745
9.62272e-05
0.000103192
0.000113876
0.000124446
0.000136713
0.000152003
0.000169292
0.0001893
0.000172639
0.000149412
0.000128582
0.000110041
9.36344e-05
7.91426e-05
6.75362e-05
5.82439e-05
5.07932e-05
4.48844e-05
3.98044e-05
3.53047e-05
3.12878e-05
2.77643e-05
2.46202e-05
2.18703e-05
1.94865e-05
1.73584e-05
1.5619e-05
1.41366e-05
1.2984e-05
1.3182e-05
3.03206e-05
0.000200172
0.000710017
0.00155631
0.000100189
0.000107652
0.000118821
0.00013019
0.000143061
0.00015926
0.000177443
0.000196427
0.000171143
0.000148249
0.000127718
0.000109446
9.32802e-05
7.90058e-05
6.75737e-05
5.84261e-05
5.11019e-05
4.52373e-05
4.0085e-05
3.55293e-05
3.1463e-05
2.79064e-05
2.47279e-05
2.19598e-05
1.95495e-05
1.74182e-05
1.56529e-05
1.4189e-05
1.30065e-05
1.33722e-05
3.37098e-05
0.00022033
0.00074217
0.00150679
0.000104335
0.000112403
0.000124095
0.000136384
0.000149881
0.000167106
0.000186236
0.000194454
0.000169552
0.000147
0.000126776
0.000108776
9.28379e-05
7.87932e-05
6.75451e-05
5.85522e-05
5.13636e-05
4.5494e-05
4.02771e-05
3.56728e-05
3.15635e-05
2.79805e-05
2.47727e-05
2.19939e-05
1.95612e-05
1.7435e-05
1.56499e-05
1.42135e-05
1.30511e-05
1.42386e-05
4.45e-05
0.000256566
0.000789833
0.001451
0.00010874
0.00011731
0.00012965
0.000142847
0.000157007
0.000175321
0.000195406
0.00019239
0.000167876
0.000145673
0.000125764
0.000108049
9.23664e-05
7.85664e-05
6.75088e-05
5.86763e-05
5.16258e-05
4.57029e-05
4.043e-05
3.57849e-05
3.16396e-05
2.80366e-05
2.48049e-05
2.20211e-05
1.95691e-05
1.74522e-05
1.56484e-05
1.4241e-05
1.3103e-05
1.51523e-05
5.45969e-05
0.000286358
0.000828905
0.0013905
0.00011338
0.000122316
0.000135512
0.000149559
0.000164485
0.000183953
0.000205033
0.000190301
0.000166174
0.000144321
0.000124727
0.000107298
9.18726e-05
7.83256e-05
6.74611e-05
5.87914e-05
5.1839e-05
4.58541e-05
4.05308e-05
3.58502e-05
3.16735e-05
2.80543e-05
2.4802e-05
2.20169e-05
1.95484e-05
1.74438e-05
1.56268e-05
1.42538e-05
1.3234e-05
1.71267e-05
7.13816e-05
0.000325078
0.000877542
0.00133139
0.000118301
0.000127453
0.000141787
0.000156498
0.000172306
0.00019292
0.000214283
0.000188255
0.000164521
0.000143023
0.000123749
0.000106608
9.14421e-05
7.8145e-05
6.74724e-05
5.89627e-05
5.20581e-05
4.60189e-05
4.06508e-05
3.59397e-05
3.17342e-05
2.81017e-05
2.48288e-05
2.2043e-05
1.95561e-05
1.74618e-05
1.56261e-05
1.42813e-05
1.3317e-05
1.83879e-05
8.21595e-05
0.000351097
0.000914833
0.00127049
0.000123581
0.000132839
0.000148539
0.000163834
0.000180667
0.000202459
0.0002117
0.000186126
0.000162793
0.000141661
0.000122715
0.00010587
9.09711e-05
7.79374e-05
6.74628e-05
5.91152e-05
5.2212e-05
4.61257e-05
4.07189e-05
3.59825e-05
3.1753e-05
2.81108e-05
2.48214e-05
2.20383e-05
1.95364e-05
1.74553e-05
1.56073e-05
1.42992e-05
1.35234e-05
2.10089e-05
9.97442e-05
0.000386261
0.000965173
0.00121581
0.000129138
0.000138603
0.000155722
0.000171573
0.000189533
0.000212518
0.000209082
0.000183969
0.000161043
0.000140282
0.00012167
0.000105125
9.04991e-05
7.77348e-05
6.74612e-05
5.92735e-05
5.23281e-05
4.62016e-05
4.07619e-05
3.60053e-05
3.17561e-05
2.81079e-05
2.48049e-05
2.20273e-05
1.95125e-05
1.74458e-05
1.55876e-05
1.43207e-05
1.37964e-05
2.41092e-05
0.000117799
0.000420959
0.00102096
0.00116067
0.000134919
0.000144665
0.000163278
0.000179685
0.000198885
0.00022307
0.000206447
0.000181798
0.000159281
0.000138897
0.000120622
0.000104381
9.00316e-05
7.75407e-05
6.74694e-05
5.94033e-05
5.24104e-05
4.62503e-05
4.07832e-05
3.60108e-05
3.17458e-05
2.80944e-05
2.47804e-05
2.20102e-05
1.94839e-05
1.74321e-05
1.55662e-05
1.43477e-05
1.41666e-05
2.79056e-05
0.000137193
0.000457521
0.001087
0.00110914
0.000140942
0.000151029
0.000171188
0.000188184
0.00020871
0.000230601
0.000203832
0.000179644
0.000157535
0.000137526
0.000119589
0.000103651
8.95798e-05
7.73627e-05
6.74915e-05
5.94991e-05
5.24649e-05
4.62766e-05
4.07865e-05
3.60021e-05
3.17245e-05
2.80725e-05
2.47496e-05
2.19883e-05
1.94522e-05
1.74157e-05
1.55446e-05
1.43833e-05
1.46412e-05
3.23543e-05
0.000157436
0.000496351
0.00116673
0.00106549
0.000147322
0.000157722
0.000179595
0.000197144
0.000219146
0.0002274
0.000201132
0.000177414
0.000155724
0.000136101
0.00011851
0.000102886
8.91029e-05
7.71694e-05
6.74995e-05
5.95383e-05
5.24706e-05
4.62609e-05
4.07537e-05
3.59618e-05
3.16763e-05
2.80264e-05
2.46984e-05
2.19477e-05
1.94052e-05
1.73849e-05
1.55164e-05
1.44408e-05
1.54276e-05
3.88257e-05
0.000182942
0.000544491
0.00127039
0.00102552
0.000154121
0.000164914
0.00018853
0.000206649
0.000230208
0.000224175
0.000198421
0.000175181
0.000153915
0.000134685
0.000117448
0.000102141
8.86513e-05
7.70023e-05
6.75298e-05
5.95607e-05
5.2467e-05
4.62422e-05
4.0723e-05
3.5928e-05
3.16374e-05
2.79926e-05
2.46606e-05
2.19219e-05
1.93727e-05
1.73684e-05
1.5499e-05
1.44997e-05
1.60865e-05
4.41165e-05
0.000203074
0.000587345
0.00128326
0.000986498
0.000161252
0.000172508
0.000197889
0.000216626
0.00024182
0.00022094
0.000195697
0.000172926
0.000152083
0.000133244
0.000116358
0.000101371
8.81774e-05
7.68155e-05
6.75178e-05
5.95173e-05
5.24026e-05
4.61667e-05
4.06395e-05
3.5844e-05
3.15525e-05
2.7914e-05
2.45831e-05
2.18571e-05
1.93075e-05
1.73207e-05
1.54702e-05
1.4636e-05
1.76141e-05
5.45055e-05
0.000236278
0.000648135
0.00130746
0.000951508
0.000168781
0.000180525
0.000207753
0.000227106
0.000244925
0.000217677
0.00019296
0.000170669
0.000150258
0.000131818
0.000115291
0.000100629
8.77374e-05
7.66598e-05
6.7492e-05
5.94692e-05
5.23406e-05
4.60995e-05
4.05688e-05
3.57764e-05
3.14859e-05
2.78558e-05
2.45256e-05
2.18129e-05
1.92609e-05
1.72906e-05
1.5454e-05
1.47706e-05
1.89446e-05
6.32049e-05
0.000263027
0.000703062
0.00133719
0.000916085
0.000176916
0.000189191
0.000218318
0.000238284
0.000240959
0.000214319
0.000190149
0.000168348
0.000148382
0.000130353
0.000114197
9.98705e-05
8.72905e-05
7.64982e-05
6.74206e-05
5.93849e-05
5.22504e-05
4.60104e-05
4.04815e-05
3.56963e-05
3.14105e-05
2.77911e-05
2.44641e-05
2.17656e-05
1.92129e-05
1.72598e-05
1.54423e-05
1.49399e-05
2.05154e-05
7.28879e-05
0.000291155
0.000761969
0.00138112
0.000884727
0.000185664
0.000198599
0.000229665
0.00025035
0.000236942
0.000210905
0.000187285
0.000165972
0.000146454
0.000128839
0.000113057
9.90724e-05
8.68106e-05
7.63004e-05
6.72723e-05
5.92302e-05
5.20959e-05
4.58618e-05
4.03401e-05
3.55652e-05
3.12893e-05
2.76822e-05
2.43646e-05
2.16807e-05
1.91353e-05
1.72021e-05
1.54383e-05
1.53107e-05
2.36526e-05
8.96564e-05
0.000333732
0.000840166
0.00143371
0.000855576
0.000194825
0.00020843
0.000241449
0.000262282
0.00023299
0.000207552
0.00018448
0.000163653
0.000144581
0.000127379
0.000111971
9.83278e-05
8.63817e-05
7.61395e-05
6.71251e-05
5.90839e-05
5.19555e-05
4.57321e-05
4.02208e-05
3.54595e-05
3.11945e-05
2.76017e-05
2.42922e-05
2.16238e-05
1.9082e-05
1.71679e-05
1.54448e-05
1.56213e-05
2.60965e-05
0.000102379
0.000365635
0.000908545
0.00149428
0.000826826
0.000204559
0.000218914
0.000253939
0.000257411
0.000228952
0.000204117
0.000181604
0.000161266
0.00014265
0.000125868
0.000110842
9.75482e-05
8.59241e-05
7.593e-05
6.69115e-05
5.88791e-05
5.1764e-05
4.55573e-05
4.00626e-05
3.53191e-05
3.10706e-05
2.74948e-05
2.41987e-05
2.15469e-05
1.90144e-05
1.71229e-05
1.5469e-05
1.61103e-05
2.96987e-05
0.000119438
0.000405253
0.000988337
0.00159053
0.000803214
0.000215087
0.000230225
0.000264589
0.000252638
0.000224981
0.000200731
0.000178759
0.000158897
0.000140726
0.000124357
0.000109708
9.67618e-05
8.54527e-05
7.5654e-05
6.66355e-05
5.86154e-05
5.15175e-05
4.53303e-05
3.98562e-05
3.51329e-05
3.09055e-05
2.73481e-05
2.40716e-05
2.14371e-05
1.89226e-05
1.70619e-05
1.55426e-05
1.7021e-05
3.57808e-05
0.000144789
0.00045856
0.00108471
0.00170946
0.00078219
0.000223674
0.000239397
0.000277987
0.000247964
0.000221094
0.00019742
0.000175985
0.000156594
0.000138865
0.000122904
0.000108631
9.60276e-05
8.50215e-05
7.53709e-05
6.63593e-05
5.83565e-05
5.12796e-05
4.5115e-05
3.96635e-05
3.49621e-05
3.07564e-05
2.72183e-05
2.39606e-05
2.13437e-05
1.88455e-05
1.70176e-05
1.56395e-05
1.79781e-05
4.17373e-05
0.000167942
0.000505702
0.00117809
0.0018233
0.000762743
0.000235245
0.000251969
0.000273617
0.000243126
0.000217066
0.000193995
0.000173118
0.000154215
0.000136947
0.00012141
0.000107526
9.52773e-05
8.45727e-05
7.50374e-05
6.60442e-05
5.80681e-05
5.10198e-05
4.48833e-05
3.9459e-05
3.47825e-05
3.06009e-05
2.70832e-05
2.38456e-05
2.12461e-05
1.87665e-05
1.69782e-05
1.57914e-05
1.92736e-05
4.935e-05
0.000195227
0.000558888
0.00128078
0.00193849
0.000747123
0.000248107
0.000266
0.00026774
0.0002382
0.000212959
0.000190505
0.0001702
0.000151796
0.000135001
0.000119899
0.000106413
9.45254e-05
8.41137e-05
7.46612e-05
6.5697e-05
5.77557e-05
5.07428e-05
4.46395e-05
3.92462e-05
3.45972e-05
3.04417e-05
2.69452e-05
2.37289e-05
2.11467e-05
1.86879e-05
1.69485e-05
1.60138e-05
2.09687e-05
5.87221e-05
0.00022612
0.000616898
0.00139249
0.0020534
0.000735589
0.00026168
0.000280869
0.000261995
0.000233394
0.000208945
0.000187098
0.000167355
0.000149445
0.000133117
0.000118444
0.000105352
9.38159e-05
8.36697e-05
7.4276e-05
6.53472e-05
5.74456e-05
5.04718e-05
4.44047e-05
3.90449e-05
3.44254e-05
3.0297e-05
2.68233e-05
2.36278e-05
2.10643e-05
1.86248e-05
1.69351e-05
1.62362e-05
2.25172e-05
6.68415e-05
0.000251452
0.000664958
0.00149956
0.0021676
0.000724085
0.000276177
0.000285148
0.000256126
0.000228474
0.000204804
0.000183566
0.000164386
0.000146972
0.000131118
0.000116882
0.000104192
9.3007e-05
8.30791e-05
7.37524e-05
6.48661e-05
5.70111e-05
5.00845e-05
4.40597e-05
3.87414e-05
3.41564e-05
3.00648e-05
2.66169e-05
2.3455e-05
2.09126e-05
1.8518e-05
1.69433e-05
1.68861e-05
2.65878e-05
8.60248e-05
0.000303261
0.000752928
0.00164229
0.00228076
0.000717749
0.000292215
0.000278312
0.000250124
0.000223452
0.000200566
0.000179956
0.000161353
0.000144451
0.000129084
0.000115297
0.000103017
9.21781e-05
8.24275e-05
7.31807e-05
6.43501e-05
5.65529e-05
4.96831e-05
4.37089e-05
3.84392e-05
3.38949e-05
2.98445e-05
2.64273e-05
2.33006e-05
2.07835e-05
1.84353e-05
1.69881e-05
1.75788e-05
3.04968e-05
0.000102806
0.000344537
0.00082337
0.001777
0.00238773
0.0007092
0.0003038
0.000271649
0.000244285
0.000218557
0.00019642
0.000176422
0.00015838
0.000141979
0.000127091
0.000113745
0.000101865
9.13491e-05
8.17326e-05
7.2569e-05
6.37995e-05
5.60648e-05
4.92559e-05
4.33357e-05
3.81179e-05
3.36165e-05
2.96098e-05
2.62244e-05
2.31355e-05
2.06457e-05
1.83569e-05
1.70942e-05
1.86217e-05
3.60135e-05
0.000124769
0.000394414
0.000907199
0.00192603
0.00250016
0.000705325
0.000295982
0.000265042
0.000238501
0.000213698
0.000192289
0.000172898
0.000155411
0.000139509
0.0001251
0.000112193
0.000100706
9.04911e-05
8.09734e-05
7.18985e-05
6.31974e-05
5.55312e-05
4.87889e-05
4.29271e-05
3.77654e-05
3.33101e-05
2.93507e-05
2.59993e-05
2.29524e-05
2.04949e-05
1.82896e-05
1.73125e-05
2.02554e-05
4.40173e-05
0.000153721
0.000454725
0.00100692
0.00209035
0.00261204
0.000702752
0.000287969
0.000258255
0.000232574
0.000208719
0.000188045
0.000169283
0.000152366
0.00013698
0.000123064
0.000110605
9.95106e-05
8.95586e-05
8.014e-05
7.11663e-05
6.25467e-05
5.49601e-05
4.82937e-05
4.24981e-05
3.73989e-05
3.29951e-05
2.90872e-05
2.57735e-05
2.27717e-05
2.03527e-05
1.82512e-05
1.76456e-05
2.23334e-05
5.34429e-05
0.00018482
0.000515305
0.00110929
0.00226196
0.00272179
0.000700983
0.000280099
0.000251563
0.00022674
0.000203804
0.000183843
0.000165702
0.000149347
0.000134475
0.000121046
0.000109028
9.83045e-05
8.85592e-05
7.92483e-05
7.03807e-05
6.18496e-05
5.43486e-05
4.77635e-05
4.20384e-05
3.70059e-05
3.26568e-05
2.88037e-05
2.55303e-05
2.25782e-05
2.02078e-05
1.8254e-05
1.82052e-05
2.54135e-05
6.64814e-05
0.000224088
0.000587471
0.00123
0.00243251
0.00283049
0.000701024
0.000272393
0.000244982
0.000221006
0.000198956
0.000179685
0.000162154
0.000146351
0.000131987
0.000119039
0.00010745
9.70684e-05
8.74797e-05
7.8283e-05
6.95251e-05
6.10888e-05
5.36791e-05
4.71805e-05
4.15308e-05
3.65696e-05
3.22793e-05
2.84856e-05
2.52566e-05
2.23626e-05
2.00611e-05
1.83427e-05
1.92096e-05
3.03627e-05
8.57816e-05
0.000276381
0.000677913
0.00137648
0.0025891
0.00293288
0.000701546
0.000264591
0.000238305
0.000215197
0.000194033
0.000175455
0.000158545
0.000143303
0.000129456
0.000116994
0.000105828
9.57636e-05
8.62976e-05
7.72277e-05
6.85894e-05
6.02597e-05
5.29517e-05
4.65491e-05
4.0983e-05
3.61006e-05
3.18758e-05
2.81476e-05
2.49696e-05
2.21441e-05
1.99409e-05
1.85594e-05
2.07559e-05
3.72235e-05
0.000110161
0.000335679
0.000775786
0.001536
0.00274466
0.00303065
0.000701413
0.000256904
0.000231705
0.000209456
0.000189149
0.000171247
0.000154951
0.000140262
0.000126931
0.000114943
0.000104175
9.43574e-05
8.50202e-05
7.60829e-05
6.75687e-05
5.93531e-05
5.21538e-05
4.58536e-05
4.03773e-05
3.55797e-05
3.14259e-05
2.77691e-05
2.46498e-05
2.19117e-05
1.98687e-05
1.90781e-05
2.35145e-05
4.84219e-05
0.000146476
0.000415237
0.000901535
0.00173243
0.00290982
0.00312323
0.000701886
0.000249392
0.000225239
0.000203835
0.000184353
0.00016711
0.000151416
0.000137272
0.000124446
0.000112916
0.00010251
9.28761e-05
8.3675e-05
7.48745e-05
6.64879e-05
5.83927e-05
5.13081e-05
4.51158e-05
3.97347e-05
3.50268e-05
3.09493e-05
2.73696e-05
2.43194e-05
2.16962e-05
1.99113e-05
2.0063e-05
2.79411e-05
6.47291e-05
0.000193834
0.000508519
0.00104454
0.00195181
0.00307416
0.00320741
0.000700263
0.000241936
0.000218806
0.000198241
0.000179565
0.000162974
0.000147881
0.000134279
0.000121953
0.000110858
0.000100767
9.12792e-05
8.22221e-05
7.35636e-05
6.53095e-05
5.73426e-05
5.038e-05
4.43025e-05
3.90235e-05
3.44118e-05
3.04179e-05
2.69249e-05
2.39648e-05
2.15205e-05
2.02186e-05
2.21057e-05
3.60312e-05
9.18348e-05
0.000263797
0.000632729
0.00122638
0.0022061
0.00324919
0.00328102
0.000697383
0.000234546
0.000212419
0.000192687
0.000174799
0.000158855
0.000144359
0.000131294
0.000119457
0.000108765
9.89064e-05
8.95747e-05
8.06684e-05
7.21561e-05
6.4039e-05
5.62076e-05
4.93739e-05
4.34175e-05
3.8247e-05
3.37382e-05
2.98366e-05
2.64454e-05
2.36169e-05
2.14856e-05
2.11237e-05
2.62408e-05
5.06284e-05
0.000135506
0.000362348
0.000790591
0.00144685
0.00249244
0.00342428
0.00333777
0.000690071
0.000227372
0.000206205
0.000187281
0.000170147
0.000154831
0.000140916
0.000128371
0.000116992
0.000106641
9.69636e-05
8.77891e-05
7.90333e-05
7.06658e-05
6.26855e-05
5.49922e-05
4.829e-05
4.24578e-05
3.74e-05
3.29996e-05
2.92021e-05
2.59434e-05
2.33465e-05
2.18575e-05
2.35088e-05
3.51239e-05
7.86126e-05
0.000208932
0.000505414
0.000998712
0.00172216
0.00277344
0.00359049
0.00337415
0.000678669
0.000220342
0.000200107
0.000181974
0.000165572
0.000150874
0.000137528
0.000125483
0.00011452
0.000104414
9.49211e-05
8.59071e-05
7.73034e-05
6.90811e-05
6.12392e-05
5.36878e-05
4.71208e-05
4.14162e-05
3.64766e-05
3.21945e-05
2.85282e-05
2.54848e-05
2.33895e-05
2.33971e-05
2.96348e-05
5.47736e-05
0.00013305
0.000331071
0.000709018
0.00126885
0.00205628
0.00300852
0.00376637
0.00338345
0.000655879
0.000213555
0.000194228
0.000176872
0.00016118
0.000147086
0.000134288
0.000122707
0.000112082
0.000102194
9.28874e-05
8.4036e-05
7.55845e-05
6.75062e-05
5.98021e-05
5.23919e-05
4.59578e-05
4.03786e-05
3.55579e-05
3.14052e-05
2.792e-05
2.52625e-05
2.42156e-05
2.73352e-05
4.25208e-05
9.1187e-05
0.000220544
0.000496822
0.00094858
0.00156641
0.00240725
0.00312839
0.00384237
0.00341002
0.000651863
0.000208028
0.000189436
0.000172712
0.000157596
0.000143994
0.000131634
0.000120386
0.000109991
0.000100288
9.11401e-05
8.24264e-05
7.41029e-05
6.61455e-05
5.8558e-05
5.12681e-05
4.49474e-05
3.9476e-05
3.47627e-05
3.07439e-05
2.74971e-05
2.54456e-05
2.61551e-05
3.4411e-05
6.36376e-05
0.000145971
0.000338463
0.000694249
0.00121028
0.00187546
0.00274469
0.00341257
0.00403562
0.00335351
0.000610811
0.000203453
0.000185467
0.000169267
0.000154627
0.000141432
0.000129425
0.000118427
0.000108225
9.86807e-05
8.96648e-05
8.1066e-05
7.28488e-05
6.49919e-05
5.75025e-05
5.0314e-05
4.40891e-05
3.87103e-05
3.40962e-05
3.02213e-05
2.72819e-05
2.60804e-05
2.92798e-05
4.45787e-05
9.18257e-05
0.000212714
0.000465817
0.000882635
0.00144171
0.00214454
0.0027585
0.00330815
0.00397584
0.0033152
0.000569711
2.89201e-05
2.85865e-05
2.96206e-05
3.14177e-05
3.34851e-05
3.59938e-05
3.90207e-05
4.2589e-05
4.68167e-05
5.18497e-05
5.78112e-05
6.47137e-05
7.31131e-05
7.99995e-05
6.51238e-05
5.32527e-05
4.37643e-05
3.61644e-05
3.00644e-05
2.51602e-05
2.1213e-05
1.80401e-05
1.54926e-05
1.34762e-05
1.18811e-05
1.07251e-05
9.85347e-06
9.52322e-06
9.31466e-06
8.94238e-06
9.66966e-06
1.2174e-05
2.50551e-05
6.81859e-06
2.79068e-05
2.79172e-05
2.93768e-05
3.14352e-05
3.35764e-05
3.6033e-05
3.89571e-05
4.24475e-05
4.66039e-05
5.15054e-05
5.72603e-05
6.41475e-05
7.2316e-05
7.78251e-05
6.35505e-05
5.21162e-05
4.29442e-05
3.55731e-05
2.96376e-05
2.48505e-05
2.09854e-05
1.78673e-05
1.53553e-05
1.33558e-05
1.17681e-05
1.05974e-05
9.70934e-06
9.35112e-06
9.14383e-06
8.8413e-06
9.48899e-06
1.15056e-05
2.42948e-05
6.76245e-06
2.74103e-05
2.7485e-05
2.91431e-05
3.11798e-05
3.3184e-05
3.55279e-05
3.84397e-05
4.1926e-05
4.60034e-05
5.07588e-05
5.63593e-05
6.30194e-05
7.09129e-05
7.56481e-05
6.19752e-05
5.0978e-05
4.21229e-05
3.49811e-05
2.92105e-05
2.45406e-05
2.07577e-05
1.76953e-05
1.52198e-05
1.32387e-05
1.16589e-05
1.04749e-05
9.57124e-06
9.15865e-06
8.9524e-06
8.73482e-06
9.31797e-06
1.06421e-05
2.33492e-05
6.56555e-06
2.6994e-05
2.72193e-05
2.89054e-05
3.09902e-05
3.30623e-05
3.55258e-05
3.85361e-05
4.20257e-05
4.60192e-05
5.06764e-05
5.62009e-05
6.27422e-05