/*--------------------------------*- C++ -*----------------------------------*\
| =========                 |                                                 |
| \\      /  F ield         | OpenFOAM: The Open Source CFD Toolbox           |
|  \\    /   O peration     | Version:  2.3.0                                 |
|   \\  /    A nd           | Web:      www.OpenFOAM.org                      |
|    \\/     M anipulation  |                                                 |
\*---------------------------------------------------------------------------*/
FoamFile
{
    version     2.0;
    format      ascii;
    class       volScalarField;
    location    "100";
    object      omega;
}
// * * * * * * * * * * * * * * * * * * * * * * * * * * * * * * * * * * * * * //

dimensions      [0 0 -1 0 0 0 0];

internalField   nonuniform List<scalar> 
14415
(
7.23442
8.09332
9.06944
10.2165
11.5949
13.2499
15.248
17.6874
20.6963
24.4457
29.1764
35.2283
43.0988
53.6258
66.5439
82.382
101.748
125.381
154.185
189.264
231.999
284.064
347.765
425.48
522.146
639.077
792.868
968.582
1247.09
1480.88
1935.36
2420.27
3250.44
1931.52
7.22367
8.12331
9.09656
10.2259
11.5975
13.2509
15.2458
17.6782
20.6773
24.4135
29.1248
35.1483
42.9776
53.4438
66.2674
81.972
101.157
124.551
153.042
187.713
229.927
281.317
344.175
420.754
516.106
631.119
782.767
955.57
1226.1
1463.45
1904.3
2389.18
3206.48
1935.49
7.21578
8.14883
9.13457
10.2585
11.6252
13.2755
15.2686
17.698
20.6915
24.4195
29.1184
35.1224
42.9223
53.3443
66.0979
81.6997
100.742
123.943
152.179
186.514
228.296
279.116
341.268
416.867
511.127
624.428
774.36
944.456
1207.3
1448.05
1879.6
2362.47
3175.81
1948.2
7.2218
8.18086
9.17961
10.3066
11.675
13.3251
15.3194
17.7512
20.7453
24.4721
29.1677
35.1645
42.9507
53.3495
66.0626
81.5999
100.547
123.617
151.676
185.774
227.247
277.653
339.303
414.17
507.701
619.661
768.517
936.605
1196.65
1436.73
1867.08
2343.21
3152.87
1984.54
7.21815
8.20199
9.21586
10.3489
11.7209
13.3698
15.3632
17.7957
20.7895
24.5136
29.2036
35.1903
42.9591
53.3294
65.9961
81.4613
100.304
123.229
151.092
184.926
226.057
276.001
337.087
411.13
503.801
614.277
761.644
927.543
1184
1422.8
1848.6
2318.25
3119.07
2024.04
7.23141
8.23259
9.25916
10.4008
11.7809
13.4328
15.4276
17.8631
20.8604
24.5866
29.2768
35.2604
43.0206
53.3738
66.0085
81.4198
100.18
122.985
150.682
184.289
225.123
274.655
335.241
408.533
500.443
609.551
755.592
919.373
1172.77
1409.94
1831.78
2295.8
3088.71
2068.68
7.26267
8.26978
9.3038
10.4547
11.8441
13.5012
15.4988
17.9379
20.9395
24.6691
29.361
35.3434
43.0973
53.4357
66.0416
81.4026
100.084
122.773
150.308
183.689
224.223
273.337
333.411
405.927
497.022
604.733
749.309
910.909
1160.95
1396.53
1813.39
2272.67
3056.09
2127.35
7.30097
8.31418
9.35198
10.5124
11.9121
13.5766
15.5791
18.0228
21.0295
24.764
29.459
35.4416
43.1904
53.5149
66.092
81.4022
100.003
122.571
149.934
183.073
223.284
271.939
331.449
403.109
493.25
599.418
742.195
901.359
1147.18
1380.95
1790.77
2245.55
3018.81
2190.81
7.34483
8.36687
9.40612
10.5757
11.9859
13.6596
15.6696
18.1202
21.1344
24.8766
29.5789
35.5668
43.3171
53.6364
66.1965
81.4712
100.011
122.484
149.708
182.648
222.593
270.862
329.903
400.829
490.178
594.991
736.284
893.221
1135.52
1367.34
1771.01
2221.82
2985.19
2272.79
7.38765
8.41717
9.45901
10.6377
12.0573
13.7403
15.7587
18.2169
21.2385
24.9885
29.6981
35.6914
43.4433
53.7574
66.3004
81.5397
100.02
122.398
149.488
182.231
221.918
269.812
328.403
398.629
487.211
590.731
730.569
885.311
1124.02
1353.59
1750.55
2197.37
2952.27
2380.97
7.44174
8.48358
9.52717
10.7163
12.147
13.8415
15.8719
18.3418
21.3754
25.1385
29.8617
35.8683
43.6316
53.9525
66.4927
81.7141
100.154
122.464
149.447
182.029
221.5
269.071
327.287
396.906
484.875
587.293
726.06
878.98
1115.24
1342.78
1735.44
2179.47
2928.22
2537.76
7.48831
8.5367
9.58381
10.7825
12.221
13.924
15.9631
18.4406
21.4808
25.2492
29.9758
35.982
43.7376
54.0384
66.5384
81.6915
100.026
122.178
148.938
181.205
220.255
267.236
324.69
393.251
479.84
580.47
716.535
866.831
1096.98
1322.72
1704.98
2146.69
2887.11
2715.15
7.54003
8.59672
9.64849
10.8584
12.3066
14.0199
16.0706
18.5598
21.6113
25.3911
30.1288
36.1444
43.9056
54.2043
66.6883
81.8055
100.077
122.128
148.74
180.79
219.551
266.116
323.052
390.841
476.497
575.745
709.941
858.004
1083.72
1307.26
1681.55
2121.17
2857.77
2960.79
7.59738
8.66269
9.7198
10.943
12.4025
14.1279
16.1924
18.6966
21.7639
25.5603
30.3153
36.3486
44.1265
54.4381
66.9264
82.0339
100.277
122.271
148.795
180.708
219.286
265.576
322.189
389.457
474.559
572.825
705.943
852.231
1075.25
1296.48
1665.76
2104.71
2843.69
3379.32
7.65445
8.72678
9.78942
11.0259
12.4963
14.2327
16.3097
18.8271
21.908
25.7178
30.4853
36.529
44.313
54.6213
67.0895
82.1533
100.32
122.194
148.54
180.196
218.422
264.221
320.192
386.574
470.5
567.275
698.051
842.094
1059.84
1279.2
1639.58
2078.48
2822.72
4066.01
7.71211
8.78949
9.85955
11.1101
12.5926
14.3407
16.4309
18.9627
22.0589
25.8842
30.6666
36.7238
44.5175
54.8273
67.2814
82.3088
100.409
122.174
148.358
179.775
217.675
263.017
318.385
383.935
466.731
562.073
690.555
832.329
1044.9
1262.21
1614
2054.11
2823.6
5388.91
7.77706
8.86154
9.93959
11.2069
12.7043
14.4675
16.5744
19.1253
22.2431
26.0921
30.8997
36.9835
44.8046
55.1395
67.6117
82.6446
100.733
122.458
148.57
179.866
217.59
262.668
317.695
382.715
464.868
559.204
686.338
826.344
1035.56
1251.07
1596.79
2040.76
2870.37
7246.61
7.84191
8.93104
10.018
11.3023
12.8151
14.5933
16.7164
19.2854
22.4238
26.295
31.1253
37.2318
45.0737
55.4233
67.897
82.9111
100.953
122.59
148.563
179.642
217.057
261.693
316.101
380.273
461.192
554.026
678.546
816.174
1019.56
1233.06
1569.45
2019.34
2984.12
9580.5
7.90927
9.00291
10.1006
11.4038
12.9345
14.7307
16.8732
19.4646
22.6291
26.5303
31.3939
37.537
45.419
55.8105
68.3245
83.3723
101.438
123.083
149.044
180.08
217.419
261.924
316.153
380.003
460.54
552.638
676.226
812.38
1013.18
1225.36
1557.45
2022.46
3310.28
12403
7.98088
9.07841
10.1866
11.5083
13.0567
14.87
17.0301
19.6409
22.8278
26.7536
31.6427
37.8111
45.7163
56.1243
68.6404
83.6693
101.686
123.239
149.051
179.859
216.864
260.905
314.464
377.445
456.649
547.275
668.092
802.093
996.977
1207.81
1530.91
2006.13
3743.61
15212.2
8.05565
9.15737
10.2776
11.6195
13.1881
15.0216
17.2029
19.8377
23.053
27.0119
31.9382
38.1482
46.0995
56.557
69.1237
84.1999
102.258
123.841
149.67
180.471
217.439
261.399
314.819
377.536
456.373
546.335
666.165
798.907
991.152
1202.26
1521.49
2024.76
4476.67
18000.2
8.13513
9.24159
10.3743
11.7368
13.3263
15.1806
17.3832
20.0418
23.2851
27.2765
32.2392
38.4888
46.4828
56.9841
69.592
84.7022
102.783
124.369
150.177
180.919
217.78
261.567
314.719
377.04
455.275
544.44
662.86
794.378
982.838
1192.62
1507.67
2037.38
5334.04
20701
8.21839
9.32978
10.4753
11.8586
13.4695
15.3449
17.5688
20.2508
23.5215
27.5444
32.542
38.8291
46.8623
57.4018
70.0425
85.1745
103.261
124.827
150.58
181.219
217.903
261.434
314.174
375.951
453.296
541.457
657.934
788.056
972.068
1179.53
1490.07
2045.22
6206.88
23005.2
8.29999
9.4159
10.5755
11.9802
13.614
15.5123
17.7597
20.4679
23.7698
27.8298
32.8703
39.2063
47.2952
57.8971
70.6065
85.8106
103.972
125.612
151.439
182.148
218.889
262.462
315.213
377.155
454.487
542.495
658.267
788.322
969.376
1176.84
1489.6
2172.78
7284.87
25042.6
8.38252
9.50167
10.6755
12.1006
13.7566
15.6766
17.9457
20.6773
24.0062
28.0978
33.174
39.5487
47.6787
58.3219
71.0692
86.3036
104.483
126.124
151.925
182.572
219.197
262.598
315.053
376.603
453.262
540.541
654.76
783.767
960.907
1167.63
1475.91
2256.96
8212.82
26773.1
8.47279
9.5981
10.7871
12.2337
13.9136
15.8568
18.1493
20.9064
24.2649
28.3913
33.5069
39.925
48.102
58.7937
71.5879
86.8635
105.075
126.73
152.524
183.133
219.666
262.926
315.121
376.326
452.374
538.997
651.788
779.993
953.881
1160.65
1465.82
2380.95
9067.77
28040.8
8.56438
9.69703
10.9023
12.371
14.0762
16.044
18.3617
21.1466
24.5376
28.7028
33.8634
40.3325
48.5671
59.3224
72.1857
87.5318
105.814
127.536
153.39
184.047
220.602
263.946
316.149
377.297
453.06
539.511
651.29
779.517
950.822
1159.89
1471.37
2602.33
9887.8
29082.5
8.66003
9.8018
11.0238
12.5148
14.2458
16.2381
18.5811
21.3935
24.8166
29.0196
34.2237
40.7415
49.0299
59.8426
72.7649
88.1676
106.5
128.26
154.132
184.782
221.273
264.51
316.476
377.315
452.464
538.306
648.615
776.189
944.2
1154.22
1463.02
2769.03
10496.8
29829.9
8.75922
9.91276
11.1527
12.6669
14.4255
16.4439
18.8145
21.6574
25.1162
29.3621
34.6163
41.1916
49.5461
60.4334
73.4397
88.9319
107.408
129.282
155.267
186.032
222.614
265.949
317.908
378.792
453.628
539.459
648.717
776.552
941.947
1154.34
1480.22
3035.51
11064.7
30336.3
8.85924
10.0257
11.2836
12.8205
14.6067
16.6505
19.048
21.9203
25.4135
29.7001
35.0018
41.6308
50.0459
61
74.079
89.6463
108.22
130.194
156.256
187.096
223.717
267.098
318.98
379.839
454.282
540.002
648.123
776.038
938.678
1153.08
1498.13
3288.48
11492
30722.5
8.96143
10.1426
11.4182
12.9772
14.7907
16.8588
19.2821
22.182
25.7069
30.0309
35.375
42.0508
50.5168
61.5233
74.6541
90.2684
108.878
130.877
156.939
187.753
224.284
267.544
319.153
379.723
453.504
538.722
645.308
772.919
932.177
1146.9
1499.12
3475.22
11759.9
30838.5
9.06858
10.2683
11.5624
13.145
14.9877
17.0813
19.5329
22.4632
26.024
30.3903
35.7834
42.5169
51.0592
62.1384
75.3493
91.0474
109.739
131.823
157.958
188.846
225.406
268.713
320.224
380.79
454.151
539.323
644.784
772.498
929.119
1146.21
1530.59
3728.04
12023.2
30821.8
9.18089
10.4034
11.7163
13.3234
15.1966
17.3158
19.7974
22.764
26.3645
30.7781
36.2262
43.0228
51.6389
62.7903
76.0866
91.8748
110.654
132.83
159.042
190.005
226.588
269.926
321.305
381.818
454.668
539.683
643.848
771.424
925.109
1144.03
1558.77
3946.98
12205.1
30743.3
9.29475
10.5431
11.8751
13.5098
15.4152
17.5613
20.0751
23.0769
26.7199
31.1837
36.6909
43.5563
52.2536
63.481
76.8744
92.7685
111.656
133.95
160.272
191.357
228.019
271.469
322.805
383.409
455.884
540.947
644.087
771.679
923.161
1146.39
1611.83
4198.77
12386.3
30592.6
9.41513
10.6919
12.0424
13.7035
15.6401
17.8124
20.358
23.3935
27.0771
31.5881
37.1499
44.0772
52.8451
64.1347
77.6049
93.5774
112.536
134.9
161.269
192.393
229.028
272.455
323.584
384.066
455.935
540.731
642.481
769.681
918.21
1143.31
1643.43
4382.92
12487.1
30348
9.54529
10.8517
12.2216
13.911
15.8793
18.0793
20.6592
23.7313
27.4592
32.0215
37.6431
44.6394
53.4866
64.843
78.4034
94.472
113.523
135.986
162.438
193.649
230.317
273.802
324.817
385.31
456.712
541.422
642.056
768.982
915.391
1145.46
1700.18
4598.41
12612.2
30022.4
9.68437
11.0211
12.411
14.1299
16.1296
18.3583
20.9738
24.0838
27.8577
32.4731
38.1565
45.224
54.1521
65.5744
79.2272
95.3941
114.54
137.104
163.639
194.937
231.636
275.171
326.063
386.548
457.46
542.03
641.52
768.023
912.426
1148.08
1759.57
4799.59
12731.2
29691.8
9.83218
11.1993
12.6098
14.3595
16.3902
18.6484
21.3007
24.4499
28.2715
32.9414
38.6882
45.8288
54.839
66.3262
80.0727
96.3396
115.582
138.246
164.863
196.247
232.973
276.554
327.314
387.782
458.193
542.593
640.959
766.946
909.618
1151.97
1824.66
4996.32
12858.2
29317.3
9.98686
11.3844
12.8158
14.597
16.658
18.9466
21.6364
24.8258
28.6961
33.4215
39.2327
46.4474
55.5399
67.091
80.932
97.2992
116.637
139.402
166.1
197.567
234.317
277.937
328.559
388.993
458.894
543.081
640.327
765.697
906.863
1156.9
1893.73
5189.65
12994.7
28913
10.1558
11.5835
13.0374
14.8519
16.9432
19.2643
21.9938
25.2264
29.1491
33.9338
39.8141
47.1085
56.2888
67.9074
81.8521
98.3311
117.778
140.659
167.458
199.031
235.836
279.528
330.06
390.506
459.976
543.997
640.296
765.048
905.607
1167.06
1981.09
5406.85
13169.2
28512.2
10.3373
11.7944
13.2718
15.1202
17.241
19.5956
22.3653
25.642
29.6174
34.4615
40.4105
47.7829
57.0467
68.7271
82.768
99.3477
118.889
141.863
168.733
200.371
237.174
280.867
331.213
391.552
460.44
544.115
639.219
763.128
902.408
1172.43
2052.36
5591.1
13330.2
28090.7
10.5272
12.0135
13.5158
15.3992
17.5499
19.9401
22.7522
26.0762
30.1083
35.0167
41.0405
48.4989
57.8555
69.608
83.7637
100.468
120.135
143.243
170.237
202.006
238.9
282.696
333.007
393.381
461.927
545.431
639.784
763.042
903.275
1191.25
2165.18
5828.18
13568.8
27692.2
10.7322
12.2464
13.7749
15.6938
17.8737
20.3005
23.1552
26.5272
30.6161
35.5881
41.6851
49.2262
58.6688
70.4853
84.7439
101.557
121.325
144.537
171.612
203.459
240.37
284.182
334.344
394.623
462.657
545.812
639.147
761.549
901.894
1204.19
2259.84
6037.65
13861.9
27317
10.9559
12.4971
14.0543
16.0096
18.2191
20.6849
23.5842
27.0071
31.1556
36.1942
42.3676
49.9941
59.5238
71.4048
85.769
102.692
122.562
145.875
173.029
204.947
241.869
285.683
335.683
395.838
463.345
546.106
638.421
759.936
900.748
1218.93
2360.14
6264.11
14254.7
26894.6
11.1933
12.7612
14.3497
16.3425
18.583
21.091
24.038
27.5166
31.7299
36.8417
43.0995
50.8211
60.4483
72.4067
86.8978
103.957
123.964
147.419
174.706
206.758
243.779
287.683
337.665
397.806
465.012
547.503
639.205
760.139
904.326
1250.09
2503.77
6561.92
14779.8
26526
11.4413
13.0351
14.6556
16.6854
18.9568
21.5075
24.5021
28.0363
32.3138
37.4972
43.8367
51.6483
61.365
73.3927
87.9967
105.172
125.288
148.848
176.217
208.337
245.369
289.259
339.075
399.05
465.731
547.755
638.486
758.563
904.4
1270.87
2620.47
6837.61
15344.3
26162.4
11.7076
13.3272
14.9827
17.0505
19.3546
21.9513
24.997
28.5918
32.9385
38.2
44.6283
52.5381
62.3521
74.4593
89.1925
106.503
126.749
150.437
177.919
210.136
247.217
291.124
340.832
400.665
466.909
548.484
638.416
757.829
907.101
1301.32
2761.01
7150.71
15867.1
25770.6
11.9808
13.6269
15.3186
17.4251
19.7638
22.4091
25.5087
29.168
33.5887
38.934
45.4585
53.4749
63.3961
75.5977
90.4817
107.954
128.365
152.223
179.869
212.244
249.457
293.457
343.18
402.946
468.933
550.136
639.602
758.839
915.041
1349.59
2940.58
7500.37
16288.7
25444.7
12.2637
13.9361
15.6648
17.8094
20.1831
22.8776
26.0315
29.7558
34.2501
39.6785
46.2972
54.4165
64.439
76.7307
91.7566
109.378
129.936
153.94
181.72
214.213
251.504
295.533
345.184
404.791
470.392
551.111
639.92
758.889
921.272
1393.27
3106.38
7815.42
16614.9
25138.2
12.5736
14.2725
16.0417
18.2253
20.6363
23.383
26.5945
30.3878
34.9595
40.4751
47.1915
55.4159
65.5403
77.9238
93.0938
110.865
131.569
155.717
183.626
216.231
253.596
297.648
347.231
406.675
471.918
552.165
640.435
759.486
930.005
1446.13
3287.84
8127.67
16874.2
24824.6
12.9077
14.6336
16.4463
18.6693
21.1202
23.9219
27.1939
31.0596
35.712
41.3181
48.1348
56.4657
66.6918
79.1685
94.4837
112.404
133.252
157.537
185.571
218.278
255.71
299.773
349.285
408.553
473.453
553.233
641.061
760.565
941.121
1507.26
3480.1
8430.82
17078.1
24543.4
13.2526
15.0064
16.8631
19.1257
21.6178
24.4756
27.809
31.7482
36.4818
42.1784
49.0946
57.5294
67.8533
80.4212
95.8751
113.933
134.91
159.313
187.442
220.214
257.657
301.665
351.01
410.005
474.408
553.594
640.72
760.334
948.907
1558.46
3645.15
8678.55
17220.7
24247.1
13.6216
15.4063
17.3115
19.6169
22.1562
25.0769
28.4804
32.504
37.3314
43.1345
50.1689
58.7299
69.1786
81.8745
97.5205
115.782
136.969
161.585
189.931
222.903
260.543
304.671
354.128
413.039
477.366
556.225
643.634
765.915
975.196
1662.78
3896.49
8991.34
17350.7
24017.4
14.0212
15.8388
17.7956
20.1454
22.7361
25.7235
29.2017
33.3146
38.2408
44.1554
51.3122
60.002
70.5771
83.4044
99.2433
117.703
139.089
163.897
192.426
225.547
263.307
307.458
356.881
415.56
479.575
557.916
645.229
769.629
996.066
1749.19
4101.16
9229.72
17438.3
23840.4
14.4327
16.2858
18.2952
20.6912
23.3366
26.3938
29.9506
34.1572
39.1869
45.2183
52.5028
61.3269
72.0356
85.0061
101.05
119.722
141.32
166.335
195.062
228.348
266.247
310.438
359.859
418.326
482.099
560.008
647.591
775.452
1024.28
1853.69
4324.39
9462.93
17489.4
23635.3
14.8644
16.7556
18.8198
21.2648
23.9695
27.1008
30.7418
35.0481
40.1883
46.3443
53.7645
62.7316
73.5846
86.7149
102.984
121.888
143.723
168.97
197.926
231.407
269.485
313.75
363.223
421.511
485.137
562.729
651.096
784.336
1062.16
1979.15
4568.49
9687.83
17501.2
23477.1
15.3347
17.2676
19.3901
21.8873
24.6572
27.8679
31.5999
36.0131
41.2712
47.5595
55.1225
64.2389
75.2433
88.5438
105.047
124.19
146.265
171.743
200.921
234.581
272.812
317.114
366.588
424.641
488.058
565.329
654.624
794.039
1102.5
2106.49
4802.78
9873.31
17469.4
23328.9
15.8277
17.8056
19.9884
22.5414
25.3814
28.6765
32.5054
37.0321
42.4154
48.8438
56.5577
65.8324
77.0003
90.4886
107.245
126.648
148.986
174.717
204.141
238.006
276.417
320.781
370.29
428.138
491.43
568.548
659.47
807.593
1154.09
2254.81
5053.61
10042.6
17403.8
23180.2
16.3438
18.3702
20.6161
23.2292
26.1452
29.5306
33.4641
38.1124
43.6304
50.2097
58.0864
67.5337
78.8842
92.5871
109.629
129.327
151.967
177.997
207.718
241.841
280.493
324.977
374.598
432.304
495.636
572.922
666.702
827.728
1223.36
2433.86
5329.87
10202.6
17319.1
23067.7
16.9026
18.9818
21.2951
23.9738
26.9734
30.4568
34.5043
39.2842
44.9481
51.6902
59.7423
69.3764
80.928
94.87
112.224
132.245
155.215
181.568
211.607
246.001
284.9
329.498
379.214
436.762
500.018
577.831
675.407
852.21
1302.32
2623.39
5602.26
10325.9
17213.8
22963.5
17.4938
19.6301
22.0147
24.7652
27.8558
31.4454
35.6168
40.5392
46.3615
53.2806
61.5245
71.3656
83.1454
97.3627
115.071
135.462
158.816
185.551
215.973
250.706
289.926
334.712
384.618
442.107
505.726
584.511
688.107
888.185
1408.23
2853.02
5904.56
10446.8
17104.8
22864.6
18.1151
20.3126
22.772
25.6001
28.7884
32.4915
36.7954
41.8692
47.8606
54.9685
63.4177
73.4832
85.5147
100.038
118.136
138.934
162.711
189.868
220.71
255.818
295.388
340.388
390.507
448.005
512.193
592.758
704.694
933.837
1532.69
3102.1
6205.35
10551.2
16990.5
22774.9
18.7793
21.0431
23.5828
26.4963
29.7913
33.6181
38.0664
43.3051
49.4812
56.7957
65.4717
75.7887
88.1086
102.986
121.53
142.802
167.076
194.737
226.088
261.665
301.684
347.006
397.473
455.212
520.541
604.53
729.995
1000.23
1696.88
3397.9
6522.65
10683.2
16878.8
22684
19.4901
21.8257
24.4517
27.4587
30.87
34.8309
39.4361
44.8532
51.2299
58.7693
67.6945
78.2921
90.9398
106.222
125.275
147.092
171.943
200.197
232.151
268.297
308.867
354.628
405.602
463.919
531.257
621.202
766.992
1092.62
1903.97
3733.93
6850.99
10834.8
16781.2
22608.5
20.2374
22.6499
25.3679
28.4764
32.0127
36.118
40.8919
46.5008
53.0943
60.8781
70.0773
80.9893
94.0112
109.76
129.398
151.851
177.386
206.356
239.052
275.922
317.215
363.628
415.429
475.011
546.098
646.703
824.206
1226.25
2173.12
4127.22
7211.69
11032
16717.3
22542.7
21.0314
23.5269
26.3436
29.5627
33.2341
37.4954
42.4511
48.267
55.0955
63.1457
72.6475
83.9124
97.3614
113.646
133.958
157.156
183.505
213.343
246.954
284.747
326.998
374.389
427.584
489.743
567.869
687.327
913.844
1418.58
2518.31
4580.22
7603.16
11264.3
16699.3
22499.1
21.863
24.4436
27.361
30.6937
34.5026
38.922
44.0611
50.085
57.1497
65.4678
75.2766
86.9034
100.795
117.637
138.653
162.638
189.858
220.641
255.27
294.13
337.546
386.295
441.662
508.269
597.739
745.158
1035.18
1654.93
2901.57
5048.87
8015.95
11552.6
16659.5
22445.5
22.5937
25.2497
28.2562
31.6899
35.6202
40.1786
45.4787
51.6849
58.957
67.5115
77.5934
89.5458
103.839
121.189
142.85
167.563
195.602
227.289
262.912
302.859
347.538
397.955
456.279
529.32
634.608
818.829
1184.96
1927.93
3307.65
5504.79
8397.54
11795.3
16722.4
22498.6
23.2377
25.9603
29.0452
32.5682
36.6047
41.2847
46.7249
53.0897
60.542
69.3025
79.6235
91.8629
106.512
124.313
146.545
171.91
200.685
233.196
269.74
310.727
356.688
408.973
470.843
551.765
675.494
899.398
1338.87
2187.64
3677.32
5924.17
8757.34
12014.3
16761.3
22337.7
7.24377
8.0794
9.07181
10.2345
11.6155
13.2742
15.2829
17.7362
20.7611
24.532
29.2931
35.3865
43.3136
53.9202
66.9586
82.9559
102.528
126.426
155.564
191.061
234.317
287.036
351.532
430.295
528.163
646.815
802.598
980.742
1265.36
1497.41
1967.26
2448.72
3290.62
1872.87
7.65577
8.53664
9.57006
10.7752
12.2077
13.9292
16.0097
18.542
21.6549
25.5266
30.4014
36.6201
44.6839
55.435
68.6156
84.7452
104.43
128.406
157.567
193.009
236.095
288.502
352.457
430.456
527.015
644.303
797.051
973.807
1247.36
1480.22
1948.42
2420.46
3330.08
1736.21
8.09455
9.0225
10.1039
11.3627
12.8579
14.649
16.8034
19.417
22.6236
26.6019
31.5935
37.9396
46.1422
57.0376
70.3568
86.6134
106.403
130.445
159.616
194.986
237.882
289.937
353.292
430.432
525.579
641.315
790.816
965.865
1226.82
1460.3
1927.71
2379.5
3385.39
1624.94
8.56997
9.54788
10.6838
11.9997
13.5567
15.4154
17.6465
20.3501
23.6606
27.7539
32.872
39.3603
47.721
58.7834
72.2724
88.6979
108.646
132.827
162.103
197.53
240.405
292.33
355.406
432.121
526.483
641.427
788.988
963.427
1219.34
1460.75
1928.3
2369.48
3411.42
1534.35
9.08167
10.1112
11.3015
12.6744
14.2962
16.2308
18.5508
21.3544
24.7726
28.982
34.2319
40.8709
49.3951
60.6277
74.2917
90.8914
111.003
135.327
164.716
200.207
243.071
294.891
357.718
434.019
527.628
641.762
787.372
960.984
1211.72
1462.32
1923.06
2348.53
3453.14
1450.34
9.63089
10.7152
11.9658
13.4026
15.0963
17.1121
19.5201
22.4175
25.9396
30.2713
35.665
42.4636
51.1582
62.5727
76.4304
93.2283
113.536
138.052
167.623
203.271
246.254
298.141
360.952
437.168
530.509
644.459
789.126
962.977
1210.87
1471.28
1941
2356.11
3482.27
1392.88
10.2225
11.3639
12.6746
14.1742
15.9377
18.0323
20.5293
23.5301
27.1749
31.6486
37.1964
44.1556
53.0247
64.6316
78.6928
95.6963
116.212
140.94
170.716
206.55
249.694
301.71
364.601
440.853
534.103
648.075
792.223
966.727
1212.85
1481.68
1964.1
2372.63
3527.49
1345.2
10.8301
12.0292
13.4024
14.9683
16.8062
18.986
21.5797
24.688
28.4484
33.0415
38.7134
45.8121
54.8419
66.6146
80.8359
97.9928
118.659
143.525
173.411
209.313
252.474
304.441
367.177
443.167
535.971
649.512
792.559
967.041
1210.14
1482.96
1975.57
2386.55
3575.91
1283.84
11.4642
12.72
14.1546
15.785
17.6934
19.9511
22.6294
25.8283
29.6869
34.3911
40.1941
47.4442
56.6269
68.5273
82.8588
100.119
120.877
145.799
175.689
211.539
254.575
306.311
368.676
444.138
536.155
648.773
790.12
963.715
1202.45
1477.53
1969.15
2394.02
3616.7
1221.6
12.1217
13.4346
14.9304
16.6259
18.606
20.9444
23.7133
27.0144
30.9889
35.8223
41.7614
49.1399
58.4317
70.424
84.8584
102.227
123.074
148.05
177.961
213.8
256.777
308.38
370.521
445.672
537.251
649.441
789.896
963.522
1199.76
1478.31
1964.71
2409.22
3688.73
1171.11
12.7897
14.1569
15.7121
17.4716
19.5221
21.9382
24.7921
28.1841
32.253
37.181
43.2113
50.6795
60.0667
72.1558
86.684
104.112
124.967
149.913
179.769
215.511
258.319
309.672
371.488
446.256
537.333
648.969
788.492
961.985
1195.79
1477.72
1954.2
2422.73
3753.71
1124.29
13.4653
14.8853
16.4982
18.3205
20.4386
22.9279
25.8609
29.3377
33.497
38.522
44.6571
52.2353
61.7233
73.8668
88.4006
105.789
126.584
151.464
181.225
216.814
259.397
310.474
371.978
446.382
537.019
648.3
787.361
961.336
1193.89
1479.9
1951.97
2436.12
3837.01
1079.67
14.1215
15.5842
17.2457
19.123
21.2997
23.8511
26.8496
30.3945
34.6221
39.7112
45.8985
53.5041
62.9757
75.0371
89.4621
106.728
127.376
152.043
181.483
216.632
258.68
309.141
369.929
443.508
533.215
643.516
781.339
954.747
1184.82
1473.94
1937.03
2438.8
3865.52
1026.74
14.7386
16.2411
17.9474
19.8756
22.1045
24.7079
27.7585
31.3536
35.6263
40.7514
46.9601
54.5664
64.0081
75.9859
90.2919
107.373
127.733
151.987
180.907
215.46
256.856
306.582
366.519
439.122
527.724
636.931
773.714
946.966
1175.62
1468.59
1925.73
2448.56
3872.98
982.225
15.3343
16.8631
18.6007
20.5664
22.8323
25.4695
28.5508
32.1718
36.4618
41.5899
47.7796
55.3306
64.6568
76.4119
90.4039
107.066
126.905
150.55
178.783
212.553
253.008
301.585
360.153
431.207
518.171
625.793
760.934
932.824
1158.87
1454.46
1903.47
2450.49
3835.47
927.304
15.8068
17.3522
19.1088
21.0982
23.3842
26.0346
29.1214
32.7375
37.006
42.088
48.1947
55.6089
64.7187
76.132
89.6914
105.823
125.02
147.887
175.164
207.747
246.754
293.628
350.271
419.207
503.849
608.87
740.975
909.83
1132.35
1428.21
1866.34
2435.05
3752.22
863.159
16.2435
17.796
19.5595
21.5584
23.8491
26.4945
29.5645
33.1479
37.3612
42.3555
48.3287
55.5446
64.3625
75.3368
88.3404
103.776
122.108
143.91
169.889
200.931
238.165
283.039
337.437
403.849
485.656
587.566
716.391
882.219
1101.23
1396.35
1824.88
2417.22
3665.52
801.008
16.516
18.0662
19.822
21.8116
24.0847
26.6987
29.7206
33.2348
37.3499
42.2062
47.9866
54.9318
63.3671
73.7887
86.1067
100.704
118.024
138.614
163.157
192.516
227.784
270.371
322.129
385.531
463.963
562.169
687.004
848.656
1063.13
1355.9
1777.04
2389.89
3556.87
729.523
16.7823
18.3101
20.036
21.9914
24.2203
26.7753
29.7191
33.1306
37.1095
41.7837
47.3185
53.9297
61.9064
71.6802
83.1959
96.8065
112.924
132.059
154.863
182.157
214.997
254.749
303.222
362.851
436.981
530.32
649.703
805.375
1013.47
1300.4
1714.01
2338.59
3441.43
655.087
16.7081
18.2196
19.9205
21.8438
24.0286
26.5215
29.3798
32.6749
36.4962
40.9572
46.2032
52.4237
59.8707
68.9119
79.5352
92.0692
106.901
124.514
145.522
170.71
201.089
237.984
283.159
339.01
408.859
497.41
611.525
761.506
963.597
1244.31
1652.94
2278
3394.12
591.39
16.6507
18.1194
19.7598
21.6063
23.6944
26.0651
28.7697
31.8718
35.4501
39.6035
44.4577
50.1746
56.9671
65.14
74.7114
85.971
99.2618
115.013
133.77
156.214
183.228
215.993
256.096
305.711
367.877
446.944
549.324
684.775
868.896
1127.64
1509.33
2102.07
3153.84
499.001
17.0476
18.5273
20.1757
22.0254
24.1112
26.4727
29.1581
32.2265
35.7508
39.8214
44.5522
50.0874
56.6137
64.389
73.481
84.1706
96.7973
111.791
129.712
151.304
177.543
209.709
249.541
299.445
362.805
444.467
551.561
694.867
891.472
1168.99
1577.84
2201.11
3229.49
446.063
15.8987
17.211
18.6619
20.2841
22.1055
24.156
26.472
29.0985
32.0899
35.5131
39.4508
44.0064
49.3127
55.545
62.8011
71.2989
81.308
93.1756
107.37
124.522
145.473
171.374
203.82
245.06
298.419
368.813
463.708
594.769
780.736
1053.25
1466.24
2133.76
3200.37
423.261
16.2678
17.6085
19.0751
20.697
22.5047
24.5276
26.7988
29.3577
32.2527
35.542
39.2963
43.6025
48.5676
54.3315
61.0448
68.9186
78.2075
89.243
102.257
117.683
136.349
159.431
188.629
226.219
274.574
338.109
423.744
542.756
713.831
970.508
1368.38
2038.46
3201.97
412.401
0.254687
0.254626
0.254566
0.254507
0.254449
0.254391
0.254334
0.254278
0.254223
0.254169
0.254115
0.254063
0.254011
0.253961
0.253912
0.253865
0.253821
0.25378
0.253743
0.253714
0.253696
0.253696
0.253733
0.253837
0.254042
0.254416
0.255086
0.256284
0.258394
0.262037
0.268322
0.279155
0.297675
0.328816
0.379923
0.461224
0.585894
0.769338
1.02684
1.36411
1.77364
2.25001
2.78878
3.38105
4.01219
4.66608
5.31715
5.97551
6.56967
0.254687
0.254627
0.254568
0.254509
0.254451
0.254394
0.254337
0.254281
0.254226
0.254172
0.254118
0.254066
0.254014
0.253964
0.253915
0.253868
0.253824
0.253783
0.253746
0.253716
0.253697
0.253697
0.253733
0.253836
0.254042
0.254418
0.255094
0.256311
0.258457
0.26217
0.268588
0.27967
0.298648
0.330627
0.383234
0.467164
0.596293
0.787022
1.0557
1.40799
1.83656
2.33749
2.90729
3.53689
4.21033
4.90907
5.6062
6.30579
6.93901
0.254688
0.254628
0.254569
0.254511
0.254453
0.254396
0.25434
0.254284
0.254229
0.254175
0.254122
0.254069
0.254018
0.253967
0.253919
0.253872
0.253827
0.253785
0.253748
0.253718
0.253699
0.253699
0.253734
0.253837
0.254043
0.254423
0.255109
0.256349
0.258544
0.262352
0.268954
0.280379
0.299984
0.333074
0.387602
0.474747
0.609079
0.807915
1.08844
1.45592
1.90356
2.42911
3.02969
3.69562
4.40992
5.15312
5.89708
6.64687
7.33241
0.254688
0.254629
0.254571
0.254513
0.254455
0.254399
0.254343
0.254287
0.254233
0.254179
0.254125
0.254073
0.254022
0.253971
0.253923
0.253876
0.253831
0.253789
0.253752
0.253721
0.253702
0.253701
0.253736
0.253839
0.254047
0.254431
0.255129
0.256396
0.258645
0.262557
0.269349
0.281123
0.301351
0.335539
0.391957
0.482287
0.621839
0.82895
1.12174
1.50514
1.97324
2.52552
3.15986
3.86666
4.62814
5.42386
6.22279
7.03254
7.77087
0.254689
0.254631
0.254573
0.254515
0.254459
0.254402
0.254347
0.254292
0.254237
0.254183
0.25413
0.254078
0.254027
0.253976
0.253927
0.25388
0.253835
0.253793
0.253756
0.253725
0.253705
0.253704
0.253739
0.253842
0.254051
0.254441
0.255154
0.256453
0.258768
0.262802
0.269825
0.282022
0.30301
0.338535
0.397253
0.491424
0.637197
0.854023
1.16087
1.56205
2.0528
2.63451
3.30581
4.05687
4.86875
5.71992
6.576
7.4476
8.24176
0.25469
0.254632
0.254574
0.254518
0.254461
0.254405
0.25435
0.254295
0.254241
0.254188
0.254135
0.254083
0.254031
0.253981
0.253932
0.253885
0.25384
0.253798
0.25376
0.253729
0.253709
0.253708
0.253742
0.253846
0.254059
0.254456
0.255186
0.256524
0.258915
0.263093
0.270383
0.283064
0.304915
0.341944
0.40322
0.501631
0.654218
0.881613
1.20354
1.62358
2.13854
2.7518
3.46268
4.26121
5.12734
6.03848
6.95667
7.89589
8.75064
0.25469
0.254633
0.254577
0.25452
0.254464
0.254409
0.254354
0.254299
0.254245
0.254192
0.254139
0.254087
0.254036
0.253986
0.253937
0.25389
0.253845
0.253802
0.253765
0.253733
0.253713
0.253711
0.253746
0.25385
0.254065
0.25447
0.255217
0.256593
0.259058
0.263379
0.270934
0.284099
0.306816
0.34536
0.409228
0.511952
0.671507
0.909758
1.2471
1.6865
2.22674
2.87335
3.62656
4.47641
5.40161
6.37844
7.36479
8.37804
9.29954
0.254691
0.254634
0.254578
0.254522
0.254467
0.254412
0.254357
0.254303
0.254249
0.254196
0.254143
0.254091
0.25404
0.25399
0.253941
0.253894
0.253849
0.253807
0.253769
0.253737
0.253717
0.253715
0.253749
0.253854
0.254072
0.254485
0.255251
0.256666
0.259211
0.263681
0.271512
0.285177
0.308785
0.348881
0.415388
0.522486
0.689079
0.938259
1.29092
1.74954
2.3152
2.99559
3.79179
4.69381
5.67925
6.72331
7.78003
8.86973
9.86238
0.254692
0.254636
0.25458
0.254524
0.254469
0.254415
0.25436
0.254306
0.254253
0.2542
0.254147
0.254096
0.254045
0.253995
0.253946
0.253898
0.253853
0.253811
0.253772
0.253741
0.25372
0.253718
0.253752
0.253858
0.254079
0.254499
0.255282
0.256737
0.259358
0.263974
0.272075
0.286232
0.310715
0.352336
0.421439
0.532845
0.706385
0.966372
1.33406
1.81172
2.40298
3.11768
3.95793
4.91397
5.96257
7.07782
8.2101
9.38109
10.4511
0.254692
0.254636
0.254581
0.254526
0.254471
0.254417
0.254363
0.254309
0.254256
0.254203
0.254151
0.254099
0.254048
0.253998
0.253949
0.253902
0.253857
0.253814
0.253776
0.253744
0.253723
0.253721
0.253756
0.253862
0.254086
0.254515
0.255316
0.256811
0.259511
0.264277
0.272656
0.287318
0.312697
0.355875
0.42762
0.543397
0.723966
0.994847