/*--------------------------------*- C++ -*----------------------------------*\
| =========                 |                                                 |
| \\      /  F ield         | OpenFOAM: The Open Source CFD Toolbox           |
|  \\    /   O peration     | Version:  2.3.0                                 |
|   \\  /    A nd           | Web:      www.OpenFOAM.org                      |
|    \\/     M anipulation  |                                                 |
\*---------------------------------------------------------------------------*/
FoamFile
{
    version     2.0;
    format      ascii;
    class       volScalarField;
    location    "100";
    object      p;
}
// * * * * * * * * * * * * * * * * * * * * * * * * * * * * * * * * * * * * * //

dimensions      [0 2 -2 0 0 0 0];

internalField   nonuniform List<scalar> 
14415
(
345.971
361.283
376.91
389.161
402.494
417.366
432.804
448.665
465.016
481.691
498.412
514.772
530.255
543.957
554.343
560.26
560.879
555.768
544.604
527.094
503.125
472.502
435.655
391.844
343.721
286.228
231.293
157.619
105.284
8.40336
-30.6534
-158.239
-161.029
-328.451
279.535
295.905
309.361
318.634
329.538
341.723
354.163
366.932
380.081
393.379
406.542
419.173
430.759
440.393
446.685
448.719
445.742
437.368
423.307
403.287
377.218
344.874
306.765
261.981
213.425
155.399
100.591
26.4538
-25.3672
-120.14
-162.147
-286.98
-298.171
-452.724
217.275
232.79
244.043
250.761
259.394
269.005
278.564
288.304
298.25
308.129
317.655
326.422
333.904
339.179
341.048
338.856
331.906
319.857
302.438
279.392
250.68
216.064
176.177
129.85
80.4567
21.4196
-33.259
-107.976
-161.002
-252.25
-295.917
-414.525
-434.333
-578.298
157.95
171.482
180.294
184.511
190.796
197.797
204.519
211.266
218.013
224.46
230.316
235.153
238.42
239.157
236.349
229.602
218.275
202.059
180.718
154.021
121.987
84.3691
41.9142
-6.6686
-57.6901
-118.184
-173.421
-247.53
-302.764
-392.166
-436.675
-550.37
-573.526
-707.508
99.587
111.513
118.167
119.94
123.842
128.215
132.107
135.867
139.412
142.415
144.575
145.44
144.425
140.529
132.909
121.445
105.549
84.9481
59.4432
28.8294
-6.81701
-47.7789
-93.1599
-144.5
-197.553
-260.219
-316.803
-391.283
-447.087
-536.256
-580.785
-690.048
-716.173
-843.079
43.3117
53.4156
57.7472
57.2396
58.8373
60.6008
61.686
62.4703
62.8108
62.3595
60.7992
57.6515
52.2993
43.6902
31.1649
14.8826
-5.68439
-30.7731
-60.5413
-95.1682
-134.518
-178.889
-227.253
-281.298
-336.513
-401.008
-459.465
-534.353
-591.245
-679.216
-726.106
-831.037
-861.103
-983.911
-10.9366
-2.72437
-0.888479
-3.58593
-4.30999
-5.17731
-6.89937
-9.10285
-11.9923
-15.9366
-21.2721
-28.5094
-38.3008
-51.749
-69.3336
-90.6049
-116.028
-145.8
-180.031
-218.873
-262.119
-310.101
-361.623
-418.66
-476.151
-542.767
-602.887
-679.046
-736.802
-824.405
-872.468
-974.393
-1007.07
-1124.85
-63.2312
-56.8772
-57.5686
-62.4419
-65.532
-69.0465
-73.5793
-78.7874
-84.933
-92.4019
-101.556
-112.942
-127.251
-145.647
-168.423
-194.824
-225.253
-259.865
-298.722
-341.94
-389.241
-440.961
-495.791
-555.76
-615.785
-684.139
-746.141
-822.764
-882.074
-968.088
-1018.46
-1116.56
-1150.94
-1266.91
-113.266
-108.793
-111.967
-119.003
-124.505
-130.681
-138.016
-146.236
-155.652
-166.664
-179.665
-195.237
-214.113
-237.512
-265.536
-297.128
-332.62
-372.123
-415.64
-463.257
-514.614
-570.105
-628.181
-691.219
-753.623
-824.072
-887.681
-965.377
-1025.93
-1111.59
-1163.45
-1259.34
-1295.87
-1407.59
-161.262
-158.738
-164.273
-173.421
-181.329
-190.162
-200.318
-211.582
-224.302
-238.895
-255.788
-275.604
-299.118
-327.614
-360.999
-397.896
-438.569
-483.08
-531.374
-583.497
-638.999
-698.26
-759.662
-825.538
-890.49
-962.564
-1028.05
-1105.88
-1168.07
-1252
-1305.85
-1398.51
-1435.82
-1546.37
-206.67
-206.237
-214.264
-225.517
-235.846
-247.34
-260.308
-274.612
-290.643
-308.83
-329.633
-353.712
-381.882
-415.486
-454.231
-496.424
-542.253
-591.735
-644.745
-701.305
-760.877
-823.923
-888.567
-957.395
-1024.66
-1098.69
-1165.59
-1244.27
-1307.25
-1390.76
-1445.19
-1536.37
-1574.27
-1680.46
-250.244
-251.831
-262.206
-275.562
-288.313
-302.455
-318.237
-335.595
-354.948
-376.74
-401.465
-429.822
-462.666
-501.397
-545.523
-593.018
-644.002
-698.428
-756.125
-817.058
-880.607
-947.196
-1014.93
-1086.31
-1155.84
-1231.2
-1299.61
-1378.25
-1442.06
-1524.16
-1578.45
-1667.69
-1704.74
-1809.29
-290.875
-294.613
-307.333
-322.731
-337.857
-354.604
-373.151
-393.507
-416.119
-441.446
-470.011
-502.543
-539.927
-583.608
-632.873
-685.385
-741.174
-800.164
-862.091
-926.918
-993.93
-1063.61
-1133.94
-1207.53
-1278.78
-1355.36
-1424.84
-1503.59
-1568.37
-1649.3
-1705.03
-1791.5
-1829.94
-1932.47
-329.228
-335.157
-350.237
-367.658
-385.146
-404.494
-425.802
-449.154
-475.021
-503.876
-536.275
-572.972
-614.881
-663.488
-717.863
-775.342
-835.879
-899.323
-965.365
-1033.92
-1104.21
-1176.72
-1249.44
-1324.79
-1397.65
-1474.74
-1545.35
-1623.33
-1688.81
-1768.06
-1823.82
-1908.35
-1945.5
-2044.52
-365.364
-373.423
-390.816
-410.272
-430.107
-452.02
-476.057
-502.372
-531.457
-563.8
-599.984
-640.787
-687.147
-740.587
-799.954
-862.276
-927.418
-995.204
-1065.22
-1137.39
-1210.83
-1286.04
-1360.89
-1437.93
-1511.8
-1589.55
-1659.94
-1737.62
-1801.84
-1879.86
-1933.68
-2016
-2051.93
-2146.8
-399.011
-409.198
-428.748
-450.173
-472.292
-496.689
-523.366
-552.543
-584.723
-620.406
-660.198
-704.889
-755.431
-813.361
-877.299
-943.963
-1013.15
-1084.6
-1157.89
-1232.85
-1308.6
-1385.61
-1461.83
-1539.55
-1614.08
-1691.25
-1762.04
-1837.87
-1902.41
-1977.88
-2031.54
-2110.76
-2145.84
-2239.26
-429.934
-442.3
-464.032
-487.332
-511.654
-538.443
-567.657
-599.58
-634.718
-673.58
-716.786
-765.132
-819.568
-881.631
-949.705
-1020.24
-1092.95
-1167.57
-1243.57
-1320.84
-1398.42
-1476.81
-1553.97
-1632.16
-1706.78
-1783.69
-1853.63
-1928.74
-1991.58
-2065.58
-2117.42
-2194.28
-2228.51
-2316.07
-458.889
-473.364
-497.149
-522.342
-548.85
-577.988
-609.698
-644.314
-682.347
-724.309
-770.833
-822.709
-880.883
-946.881
-1018.87
-1093.01
-1168.95
-1246.33
-1324.63
-1403.65
-1482.45
-1561.48
-1638.76
-1716.42
-1790.27
-1865.44
-1934.14
-2006.29
-2067.73
-2138.33
-2188.36
-2261.75
-2293.41
-2378.31
-485.295
-501.773
-527.441
-554.348
-582.85
-614.12
-648.081
-685.114
-725.719
-770.408
-819.81
-874.704
-936.007
-1005.22
-1080.27
-1157.12
-1235.32
-1314.54
-1394.16
-1474.06
-1553.22
-1632.18
-1708.98
-1785.69
-1858.33
-1931.9
-1998.62
-2068.96
-2127.5
-2196.06
-2243.21
-2313.42
-2343.44
-2424.3
-509.279
-527.637
-555.043
-583.494
-613.798
-646.971
-682.931
-722.091
-764.94
-811.98
-863.833
-921.251
-985.122
-1056.89
-1134.32
-1213.14
-1292.9
-1373.21
-1453.47
-1533.51
-1612.34
-1690.52
-1766.03
-1841.16
-1911.68
-1982.98
-2047.02
-2114.55
-2170.1
-2235.7
-2279.09
-2347.36
-2372.51
-2451.45
-531.026
-551.031
-579.877
-609.584
-641.364
-676.063
-713.597
-754.411
-798.965
-847.747
-901.358
-960.517
-1026.06
-1099.38
-1178.05
-1257.72
-1337.87
-1418.18
-1497.93
-1577.12
-1654.65
-1731.25
-1804.9
-1877.83
-1946.18
-2014.93
-2076.54
-2141.63
-2194.38
-2257.76
-2298.36
-2364.24
-2387.08
-2462.8
-550.535
-572.02
-602.12
-632.897
-665.953
-701.939
-740.787
-782.962
-828.896
-879.058
-934.026
-994.477
-1061.2
-1135.52
-1214.88
-1294.86
-1374.93
-1454.73
-1533.64
-1611.59
-1687.58
-1762.32
-1833.78
-1904.45
-1969.97
-2036.23
-2094.48
-2156.85
-2206.02
-2266.68
-2303.41
-2366.61
-2386.9
-2457.73
-567.93
-590.702
-621.833
-653.463
-687.552
-724.551
-764.418
-807.627
-854.576
-905.717
-961.597
-1022.85
-1090.22
-1164.96
-1244.4
-1324.1
-1403.47
-1482.27
-1559.73
-1636
-1709.86
-1782.35
-1851.22
-1919.13
-1981.83
-2045.06
-2100.29
-2159.86
-2205.42
-2264.22
-2296.96
-2358.34
-2376.54
-2442.33
-583.129
-606.993
-638.915
-671.188
-706.073
-743.805
-784.388
-828.296
-875.887
-927.594
-983.932
-1045.49
-1112.95
-1187.49
-1266.37
-1345.14
-1423.27
-1500.44
-1576.04
-1650.12
-1721.67
-1791.57
-1857.78
-1923.01
-1982.78
-2043.44
-2095.56
-2152.77
-2195.38
-2251.45
-2281.95
-2340.16
-2356.54
-2420.5
-596.114
-620.936
-653.408
-686.189
-721.68
-759.949
-801.046
-845.429
-893.423
-945.44
-1001.96
-1063.53
-1130.78
-1204.82
-1282.84
-1360.46
-1437.09
-1512.55
-1586.1
-1658.04
-1727.07
-1794.52
-1857.89
-1920.39
-1977.23
-2034.89
-2084.17
-2138.34
-2178.09
-2231.4
-2258.74
-2314.05
-2328.98
-2386.03
-606.817
-632.486
-665.395
-698.471
-734.363
-772.932
-814.291
-858.874
-906.972
-958.975
-1015.33
-1076.53
-1143.17
-1216.26
-1292.99
-1369
-1443.77
-1517.1
-1588.33
-1657.69
-1724.11
-1788.71
-1849.28
-1908.92
-1962.73
-2017.94
-2063.82
-2116.11
-2152.42
-2204.09
-2228.32
-2280.18
-2295.36
-2346.27
-615.855
-642.144
-675.279
-708.491
-744.606
-783.268
-824.671
-869.215
-917.159
-968.87
-1024.75
-1085.27
-1150.95
-1222.75
-1297.82
-1371.93
-1444.53
-1515.52
-1584.16
-1650.93
-1714.46
-1776.37
-1833.91
-1890.79
-1941.62
-1993.99
-2037.09
-2086.4
-2120.02
-2169.25
-2191.96
-2241.08
-2256
-2302.54
-622.974
-649.78
-682.998
-716.221
-752.417
-791.025
-832.324
-876.669
-924.291
-975.538
-1030.78
-1090.43
-1154.98
-1225.3
-1298.56
-1370.62
-1440.96
-1509.51
-1575.57
-1639.61
-1700.38
-1759.37
-1814.07
-1868.04
-1915.9
-1965.61
-2005.59
-2052.78
-2083.13
-2130.02
-2150.71
-2195.79
-2211.1
-2252.48
-628.182
-655.395
-688.554
-721.649
-757.772
-796.151
-837.169
-881.122
-928.22
-978.789
-1033.16
-1091.72
-1154.9
-1223.52
-1294.74
-1364.57
-1432.47
-1498.48
-1561.81
-1623.14
-1680.97
-1737.28
-1788.93
-1840.36
-1885.26
-1932.6
-1969.74
-2014.84
-2042.73
-2087.29
-2106.54
-2148.54
-2163.74
-2200.41
-631.64
-659.122
-692.077
-724.942
-760.869
-798.885
-839.488
-882.904
-929.331
-979.073
-1032.43
-1089.75
-1151.41
-1218.19
-1287.26
-1354.76
-1420.18
-1483.58
-1544.24
-1602.78
-1657.9
-1711.31
-1760.38
-1808.92
-1851.32
-1896.04
-1930.75
-1973.32
-1999.24
-2040.87
-2058.9
-2097.35
-2111.94
-2143.62
-633.272
-660.904
-693.517
-726.04
-761.629
-799.142
-839.186
-881.908
-927.503
-976.252
-1028.42
-1084.33
-1144.31
-1209.08
-1275.86
-1340.94
-1403.79
-1464.58
-1522.49
-1578.4
-1630.68
-1681.56
-1727.7
-1773.93
-1813.42
-1855.95
-1887.86
-1928.36
-1951.96
-1991.09
-2008.01
-2042.82
-2058.26
-2089.11
-633.152
-660.833
-692.965
-725.033
-760.148
-797.013
-836.352
-878.222
-922.826
-970.414
-1021.23
-1075.55
-1133.68
-1196.28
-1260.62
-1323.15
-1383.35
-1441.45
-1496.64
-1549.79
-1599.38
-1647.53
-1691.11
-1734.71
-1771.76
-1812.07
-1841.81
-1880.42
-1902.48
-1939.69
-1956.24
-1988.63
-2002.98
-2031.7
-631.49
-659.121
-690.691
-722.223
-756.781
-792.907
-831.459
-872.385
-915.91
-962.252
-1011.62
-1064.29
-1120.49
-1180.88
-1242.74
-1302.73
-1360.3
-1415.78
-1468.28
-1518.85
-1565.78
-1611.52
-1652.5
-1694
-1728.56
-1766.9
-1794.3
-1830.81
-1850.94
-1885.47
-1900.95
-1930.42
-1944.22
-1969.48
-628.391
-655.863
-686.764
-717.696
-751.614
-786.919
-824.605
-864.503
-906.868
-951.884
-999.742
-1050.68
-1104.91
-1163.03
-1222.42
-1279.86
-1334.84
-1387.7
-1437.61
-1485.59
-1530.01
-1573.22
-1611.87
-1650.89
-1683.27
-1719.38
-1744.94
-1779.34
-1798.22
-1830.44
-1845.31
-1872.61
-1885.25
-1907.62
-623.721
-650.933
-681.091
-711.352
-744.534
-778.937
-815.676
-854.465
-895.597
-939.215
-985.494
-1034.65
-1086.86
-1142.7
-1199.6
-1254.51
-1306.93
-1357.25
-1404.59
-1450.1
-1492.02
-1532.93
-1569.15
-1606.14
-1636.21
-1670.42
-1693.97
-1726.32
-1743.77
-1773.61
-1787.67
-1812.6
-1825.03
-1844.91
-617.556
-644.408
-673.712
-703.245
-735.578
-768.995
-804.695
-842.282
-882.095
-924.228
-968.847
-1016.14
-1066.27
-1119.76
-1174.13
-1226.5
-1276.36
-1324.14
-1368.98
-1412.05
-1451.6
-1490.21
-1524.25
-1559.14
-1587.25
-1619.55
-1641.48
-1672.04
-1688.42
-1716.42
-1729.89
-1753
-1765.07
-1783.06
-610.065
-636.452
-664.821
-693.578
-724.974
-757.345
-791.939
-828.264
-866.705
-907.305
-950.225
-995.631
-1043.66
-1094.8
-1146.67
-1196.53
-1243.89
-1289.22
-1331.65
-1372.4
-1409.66
-1446.16
-1478.06
-1511.07
-1537.25
-1567.83
-1588.18
-1616.91
-1632.2
-1658.11
-1670.96
-1692.01
-1703.63
-1719.86
-601.265
-627.11
-654.486
-682.427
-712.807
-744.085
-777.51
-812.523
-849.548
-888.578
-929.773
-973.276
-1019.2
-1068.02
-1117.41
-1164.81
-1209.74
-1252.7
-1292.81
-1331.32
-1366.44
-1400.84
-1430.79
-1461.88
-1486.35
-1515.12
-1534.11
-1561.04
-1575.38
-1599.48
-1611.66
-1630.91
-1642.13
-1656.88
-591.153
-616.38
-642.727
-669.807
-699.106
-729.243
-761.44
-795.09
-830.654
-868.077
-907.52
-949.105
-992.925
-1039.43
-1086.38
-1131.38
-1173.94
-1214.6
-1252.46
-1288.83
-1321.85
-1354.32
-1382.32
-1411.71
-1434.45
-1461.63
-1479.24
-1504.54
-1517.97
-1540.37
-1552.28
-1569.84
-1580.58
-1593.86
-579.72
-604.26
-629.545
-655.725
-683.886
-712.847
-743.764
-776.006
-810.067
-845.847
-883.517
-923.173
-964.896
-1009.11
-1053.66
-1096.3
-1136.55
-1174.98
-1210.69
-1244.99
-1276.05
-1306.63
-1332.9
-1360.54
-1381.84
-1407.37
-1423.93
-1447.68
-1460.47
-1481.28
-1492.56
-1508.7
-1519.03
-1531.04
-567.147
-590.923
-615.113
-640.358
-667.34
-695.103
-724.7
-755.504
-788.029
-822.141
-858.021
-895.744
-935.381
-977.324
-1019.53
-1059.87
-1097.89
-1134.16
-1167.81
-1200.15
-1229.32
-1258.17
-1282.73
-1308.82
-1328.6
-1352.67
-1367.97
-1390.16
-1402.06
-1421.24
-1432.18
-1446.68
-1456.32
-1467.13
-553.477
-576.416
-599.481
-623.745
-649.508
-676.046
-704.284
-733.619
-764.574
-796.985
-831.049
-866.82
-904.364
-944.051
-983.929
-1022.01
-1057.86
-1092.03
-1123.68
-1154.11
-1181.5
-1208.63
-1231.63
-1256.18
-1274.7
-1297.31
-1311.7
-1332.54
-1343.95
-1361.85
-1372.52
-1386.21
-1395.56
-1405.48
-538.621
-560.662
-582.583
-605.827
-630.344
-655.644
-682.508
-710.372
-739.752
-770.463
-802.717
-836.548
-872.025
-909.497
-947.111
-983.011
-1016.77
-1048.94
-1078.7
-1107.32
-1133.03
-1158.57
-1180.13
-1203.24
-1220.61
-1241.85
-1255.35
-1274.74
-1285.47
-1301.89
-1311.85
-1324.08
-1332.64
-1341.61
-522.717
-543.79
-564.532
-586.703
-609.932
-633.964
-659.423
-685.799
-713.59
-742.589
-773.022
-804.906
-838.314
-873.58
-908.954
-942.71
-974.418
-1004.65
-1032.57
-1059.47
-1083.55
-1107.59
-1127.73
-1149.54
-1165.71
-1185.74
-1198.33
-1216.47
-1226.63
-1241.87
-1251.65
-1262.99
-1271.14
-1279.43
-505.894
-525.941
-545.48
-566.524
-588.422
-611.15
-635.169
-660.04
-686.225
-713.508
-742.117
-772.054
-803.401
-836.473
-869.632
-901.274
-930.985
-959.323
-985.472
-1010.7
-1033.24
-1055.81
-1074.67
-1095.15
-1110.36
-1129.19
-1141.2
-1158.29
-1168.15
-1182.4
-1191.87
-1202.67
-1210.47
-1218.08
-488.067
-507.058
-525.389
-545.272
-565.814
-587.208
-609.763
-633.121
-657.702
-683.283
-710.09
-738.113
-767.437
-798.366
-829.365
-858.956
-886.733
-913.251
-937.706
-961.346
-982.43
-1003.61
-1021.26
-1040.52
-1054.77
-1072.44
-1083.68
-1099.56
-1108.82
-1121.85
-1130.59
-1140.08
-1147.1
-1154.05
-469.185
-487.078
-504.188
-522.866
-542.02
-562.041
-583.091
-604.904
-627.852
-651.714
-676.713
-702.826
-730.141
-758.947
-787.814
-815.385
-841.266
-866.007
-888.818
-910.927
-930.604
-950.471
-966.929
-985.027
-998.314
-1014.92
-1025.5
-1040.39
-1049.32
-1061.61
-1070.26
-1079.24
-1086.01
-1092.54
-449.402
-466.165
-482.044
-499.49
-517.239
-535.86
-555.375
-575.615
-596.9
-619.026
-642.211
-666.419
-691.745
-718.457
-745.229
-770.818
-794.848
-817.848
-839.069
-859.675
-878.02
-896.582
-911.972
-928.926
-941.441
-957.047
-967.167
-981.185
-989.834
-1001.4
-1009.86
-1018.21
-1024.62
-1030.69
-428.65
-444.256
-458.897
-475.094
-491.434
-508.642
-526.61
-545.26
-564.862
-585.236
-606.596
-628.905
-652.257
-676.904
-701.62
-725.274
-747.501
-768.819
-788.503
-807.676
-824.748
-842.089
-856.457
-872.331
-884.048
-898.613
-908.121
-921.095
-929.204
-939.709
-947.562
-955.185
-961.176
-966.64
-406.981
-421.37
-434.747
-449.657
-464.566
-480.342
-496.739
-513.771
-531.653
-550.239
-569.739
-590.121
-611.481
-634.054
-656.716
-678.445
-698.887
-718.544
-736.714
-754.473
-770.288
-786.42
-799.766
-814.571
-825.503
-839.095
-848.054
-860.172
-867.974
-877.837
-885.502
-892.646
-898.358
-903.32
-384.623
-397.74
-409.828
-423.407
-436.862
-451.18
-465.983
-481.371
-497.501
-514.263
-531.863
-550.274
-569.599
-590.061
-610.64
-630.428
-649.08
-667.079
-683.746
-700.11
-714.696
-729.656
-742.044
-755.855
-766.109
-778.843
-787.4
-798.786
-806.384
-815.642
-823.113
-829.858
-835.143
-839.447
-361.548
-373.358
-384.137
-396.337
-408.313
-421.141
-434.324
-448.045
-462.397
-477.308
-492.976
-509.385
-526.64
-544.956
-563.424
-581.251
-598.102
-614.443
-629.606
-644.586
-657.951
-671.767
-683.195
-696.031
-705.537
-717.38
-725.341
-735.836
-742.9
-751.305
-758.17
-764.209
-769.316
-773.262
-337.61
-348.084
-357.529
-368.306
-378.775
-390.075
-401.603
-413.631
-426.18
-439.219
-452.927
-467.298
-482.44
-498.561
-514.87
-530.696
-545.715
-560.37
-574.017
-587.585
-599.719
-612.355
-622.83
-634.682
-643.502
-654.544
-662.138
-672.087
-679.092
-687.323
-694.42
-700.527
-705.473
-708.798
-312.936
-322.048
-330.15
-339.475
-348.424
-358.16
-368.007
-378.315
-389.04
-400.189
-411.916
-424.225
-437.221
-451.111
-465.218
-478.999
-492.145
-505.075
-517.178
-529.309
-540.198
-551.633
-561.146
-571.979
-580.073
-590.19
-597.203
-606.206
-612.554
-619.696
-625.818
-630.903
-635.315
-638.142
-287.631
-295.363
-302.101
-309.937
-317.333
-325.446
-333.556
-342.087
-350.93
-360.134
-369.823
-380.006
-390.786
-402.369
-414.197
-425.853
-437.043
-448.164
-458.639
-469.254
-478.823
-488.989
-497.463
-507.222
-514.524
-523.723
-530.176
-538.45
-544.512
-551.267
-557.23
-562.048
-566.346
-568.777
-261.578
-267.903
-273.251
-279.566
-285.381
-291.824
-298.151
-304.852
-311.755
-318.957
-326.544
-334.536
-343.024
-352.211
-361.661
-371.096
-380.233
-389.452
-398.208
-407.227
-415.407
-424.25
-431.655
-440.337
-446.875
-455.22
-461.191
-468.825
-474.619
-480.979
-486.612
-491.024
-495.065
-497.021
-234.858
-239.734
-243.665
-248.425
-252.632
-257.363
-261.865
-266.68
-271.58
-276.706
-282.109
-287.821
-293.921
-300.606
-307.569
-314.672
-321.65
-328.862
-335.804
-343.137
-349.845
-357.293
-363.552
-371.08
-376.751
-384.112
-389.395
-396.139
-401.307
-406.892
-411.969
-415.876
-419.562
-421.1
-207.609
-211.002
-213.479
-216.636
-219.196
-222.159
-224.786
-227.653
-230.477
-233.443
-236.561
-239.882
-243.47
-247.522
-251.855
-256.486
-261.16
-266.226
-271.212
-276.725
-281.826
-287.75
-292.725
-298.977
-303.647
-309.943
-314.468
-320.363
-324.994
-330.001
-334.789
-338.381
-341.735
-342.872
-179.793
-181.671
-182.651
-184.157
-185.023
-186.166
-186.873
-187.73
-188.409
-189.131
-189.86
-190.67
-191.608
-192.87
-194.401
-196.386
-198.581
-201.324
-204.182
-207.708
-211.045
-215.297
-218.86
-223.728
-227.339
-232.531
-236.251
-241.306
-245.384
-249.784
-254.205
-257.388
-260.274
-260.91
-151.457
-151.782
-151.226
-151.033
-150.156
-149.421
-148.156
-146.93
-145.38
-143.758
-141.98
-140.142
-138.272
-136.56
-135.087
-134.214
-133.714
-133.923
-134.446
-135.786
-137.172
-139.59
-141.603
-144.925
-147.059
-150.841
-153.582
-157.51
-160.65
-164.01
-167.672
-170.218
-172.564
-172.738
-122.685
-121.431
-119.3
-117.363
-114.69
-112.016
-108.716
-105.325
-101.453
-97.3731
-92.9539
-88.3126
-83.4489
-78.5446
-73.816
-69.8223
-66.3564
-63.757
-61.6647
-60.5389
-59.6859
-59.9633
-60.0914
-61.6024
-62.5471
-64.9775
-66.2223
-68.8384
-71.2481
-73.8423
-77.0623
-79.1908
-80.9571
-80.5435
-93.5162
-90.6558
-86.9166
-83.1951
-78.6816
-74.0139
-68.6216
-62.9838
-56.6971
-50.0403
-42.8377
-35.2226
-27.1583
-18.8116
-10.5372
-3.10931
3.6523
9.39763
14.4497
18.3823
21.8097
23.9907
26.0573
26.6789
27.524
26.8134
26.6942
25.4159
24.4686
23.3878
21.4073
20.1486
19.055
20.0465
-64.0129
-59.5238
-54.1491
-48.6135
-42.2202
-35.5093
-27.9635
-19.9967
-11.1998
-1.8459
8.28657
19.056
30.5464
42.6163
54.7706
65.9999
76.4507
85.7518
94.1863
101.344
107.754
112.775
117.396
120.491
123.553
124.987
126.445
126.809
126.882
126.714
126.051
125.826
125.527
127.276
-34.2735
-28.1312
-21.0949
-13.7169
-5.40775
3.39328
13.1505
23.5256
34.925
47.0956
60.3053
74.4163
89.5727
105.672
122.08
137.531
152.133
165.483
177.822
188.741
198.673
207.061
214.743
220.772
226.468
230.472
234.199
236.982
238.9
240.039
240.888
242.045
242.703
245.284
-4.32754
3.47533
12.1841
21.4162
31.6624
42.5839
54.5982
67.4473
81.5301
96.6267
113.052
130.69
149.76
170.217
191.288
211.437
230.724
248.71
265.586
280.916
295.031
307.422
318.756
328.233
336.969
343.842
350.105
355.487
359.76
362.927
365.657
368.259
369.993
373.729
25.5481
35.0068
45.3905
56.4781
68.6716
81.7312
96.0342
111.41
128.247
146.371
166.148
187.495
210.721
235.864
262.032
287.401
311.993
335.333
357.563
378.216
397.526
415.012
431.171
445.336
458.396
469.42
479.499
488.602
496.426
503.199
508.856
513.256
515.976
520.391
55.0224
66.0572
78.0294
90.8739
104.923
120.017
136.514
154.312
173.805
194.857
217.901
242.887
270.249
300.117
331.518
362.332
392.566
421.701
449.835
476.418
501.598
524.776
546.26
565.328
582.638
597.304
610.204
621.226
629.931
637.069
643.233
648.413
652.477
659.237
81.3157
93.6905
107.032
121.385
137.035
153.878
172.276
192.162
213.962
237.559
263.466
291.664
322.734
356.89
393.131
429.086
464.777
499.663
533.847
566.723
598.441
628.362
656.756
682.957
707.574
729.821
750.132
768.159
783.392
795.633
803.241
807.188
808.544
813.747
103.331
116.849
131.346
146.962
163.967
182.277
202.297
223.94
247.695
273.434
301.766
332.681
366.906
404.754
445.183
485.662
526.198
566.3
606.015
644.771
682.622
718.863
753.5
785.584
815.157
841.026
862.632
877.322
883.303
881.652
877.556
875.55
875.153
883.347
402.39
421.607
441.202
456.089
471.576
488.89
506.958
525.534
544.736
564.426
584.344
604.126
623.294
640.966
655.492
665.53
670.207
669.068
661.778
648.027
627.677
600.618
567.112
526.513
480.93
426.167
372.446
301.522
247.2
152.917
112.885
-16.227
-21.4003
-192.606
462.205
484.285
506.219
522.582
539.881
559.412
579.758
600.671
622.412
644.862
667.725
690.676
713.315
734.852
753.558
767.88
776.928
780.23
777.44
768.229
752.398
729.763
700.538
664.237
622.527
572.058
521.192
454.349
400.917
310.348
271.07
140.629
133.011
-42.442
526.76
550.697
574.839
593.273
612.67
634.54
657.426
680.933
705.376
730.731
756.751
783.117
809.458
835.082
858.181
876.992
890.611
898.544
900.426
895.907
884.765
866.772
842.057
810.264
772.501
726.313
678.279
615.184
562.852
476.286
436.946
310.269
297.748
124.714
596.263
622.142
648.573
669.258
690.834
715.011
740.413
766.656
793.965
822.342
851.654
881.637
911.918
941.897
969.694
993.32
1011.86
1024.79
1031.73
1032.3
1026.23
1013.29
993.496
966.559
933.324
891.922
847.355
788.659
737.827
656.48
613.612
491.157
476.898
297.24
670.556
698.308
726.928
749.934
773.839
800.531
828.625
857.699
888.058
919.753
952.608
986.407
1020.87
1055.5
1088.28
1117.03
1140.8
1159.04
1171.35
1177.32
1176.63
1169.06
1154.51
1132.7
1104.13
1067.44
1026.4
972.165
923.595
845.498
801.718
682.856
666.242
487.022
749.375
779.21
810.157
835.645
862.055
891.39
922.342
954.461
988.071
1023.29
1059.93
1097.78
1136.68
1176.29
1214.48
1248.74
1278.15
1302.15
1320.27
1332.08
1337.22
1335.37
1326.38
1310.01
1286.58
1255.05
1218.09
1168.78
1122.26
1048.22
1002.69
888.905
871.389
689.303
832.69
864.593
897.846
925.907
954.954
987.066
1021.02
1056.33
1093.31
1132.11
1172.66
1214.87
1258.59
1303.53
1347.48
1387.68
1423.23
1453.5
1478.01
1496.28
1507.9
1512.54
1509.97
1499.9
1482.39
1456.62
1424.47
1380.61
1337
1267.78
1222.69
1111.56
1089.84
907.453
919.514
953.494
989.059
1019.8
1051.57
1086.53
1123.53
1162.13
1202.65
1245.32
1290.14
1337.03
1385.85
1436.4
1486.4
1532.95
1575.1
1612.18
1643.65
1669
1687.78
1699.57
1704.06
1700.94
1690.17
1671.08
1644.81
1607.36
1567.41
1504.67
1458.91
1351.32
1323.98
1138.46
1009.85
1045.88
1083.75
1117.27
1151.91
1189.85
1230.11
1272.22
1316.53
1363.27
1412.44
1463.98
1517.9
1574.25
1630.73
1684.07
1733.28
1777.65
1816.6
1849.58
1876.09
1895.65
1907.89
1912.42
1909.02
1897.05
1877.12
1846.17
1810.83
1753.78
1709.26
1606.88
1575.5
1388.87
1102.45
1140.6
1180.81
1217.21
1254.84
1295.87
1339.43
1385.09
1433.18
1483.99
1537.63
1594.18
1653.78
1716.58
1780.04
1840.63
1897.37
1949.58
1996.69
2038.06
2073.11
2101.3
2122.16
2135.21
2140.1
2136.23
2123.76
2100.43
2070.41
2020.33
1976.93
1880.22
1843.46
1654.74
1196.87
1237.05
1279.52
1318.82
1359.52
1403.68
1450.63
1499.98
1552.08
1607.28
1665.74
1727.59
1792.96
1862.07
1932.41
2000.35
2064.98
2125.57
2181.43
2231.86
2276.2
2313.82
2344.18
2366.69
2380.88
2386.07
2382.02
2366.81
2343.29
2300.37
2259.73
2171.22
2130.89
1942.95
1290.34
1332.48
1377.09
1419.3
1463.08
1510.39
1560.7
1613.7
1669.74
1729.16
1792.2
1859.06
1929.99
2005.5
2083.13
2159.02
2232.17
2301.72
2366.96
2427.15
2481.63
2529.72
2570.76
2604.08
2629.05
2644.87
2650.99
2645.89
2630.79
2597.35
2560.96
2480.52
2435.75
2250.04
1381.46
1425.41
1472
1517.04
1563.86
1614.23
1667.81
1724.37
1784.26
1847.89
1915.57
1987.62
2064.4
2146.52
2231.41
2315.02
2396.38
2474.73
2549.43
2619.75
2684.95
2744.25
2796.87
2842.02
2878.92
2906.69
2924.6
2931.06
2926.26
2903.57
2874.25
2803.44
2758.35
2582.08
1467.98
1513.56
1561.91
1609.59
1659.28
1712.51
1769.13
1829.01
1892.5
1960.03
2031.97
2108.69
2190.61
2278.48
2369.83
2460.71
2550.26
2637.72
2722.38
2803.41
2879.97
2951.26
3016.46
3074.73
3125.21
3166.89
3198.71
3219.06
3227.2
3218.44
3198.65
3140.59
3098.43
2935.26
1545.4
1592.3
1642.09
1692.1
1744.36
1800.13
1859.42
1922.21
1988.85
2059.79
2135.47
2216.32
2302.9
2396.09
2493.51
2591.28
2688.5
2784.41
2878.32
2969.49
3057.16
3140.55
3218.79
3290.96
3356.07
3413
3460.55
3497.19
3521.68
3530.1
3524.8
3485.16
3449.7
3305.42
1613
1660.97
1711.84
1763.77
1818.15
1875.99
1937.41
2002.52
2071.67
2145.31
2223.92
2308
2398.15
2495.33
2597.29
2700.31
2803.67
2906.71
3008.87
3109.5
3207.89
3303.19
3394.56
3481.06
3561.69
3635.32
3700.62
3755.95
3799.49
3828.03
3841.27
3824.54
3802.13
3686.74
1665.17
1714.01
1765.59
1818.84
1874.74
1934.04
1996.96
2063.69
2134.57
2210.06
2290.66
2376.9
2469.44
2569.31
2674.43
2781.47
2889.79
2998.85
3108.13
3217.05
3324.98
3431.21
3534.99
3635.47
3731.66
3822.4
3906.32
3981.69
4046.49
4097.74
4133.17
4142.73
4138.82
4055.96
1701.79
1751.04
1802.77
1856.62
1913.28
1973.26
2036.81
2104.19
2175.74
2251.91
2333.19
2420.14
2513.39
2613.98
2720.06
2828.75
2939.59
3052.15
3166.05
3280.87
3396.15
3511.35
3625.86
3738.96
3849.79
3957.3
4060.2
4156.81
4244.98
4321.7
4383.3
4422.81
4439.69
4390.85
1717.76
1767.04
1818.52
1872.37
1929.08
1988.98
2052.33
2119.42
2190.62
2266.32
2347.01
2433.24
2525.62
2625.13
2730.21
2838.51
2949.74
3063.56
3179.77
3298.12
3418.35
3540.11
3662.99
3786.49
3909.99
4032.66
4153.41
4270.78
4382.76
4486.53
4578.23
4651.49
4697.75
4700.82
1715.24
1763.69
1814.08
1867
1922.78
1981.62
2043.76
2109.5
2179.18
2253.17
2331.9
2415.85
2505.61
2602.03
2703.86
2809.33
2918.31
3030.63
3146.21
3264.99
3386.91
3511.82
3639.56
3769.88
3902.4
4036.59
4171.66
4306.43
4439.2
4567.43
4687.67
4794.24
4880.02
4925.43
1691.33
1738.62
1787.59
1839.04
1893.21
1950.22
2010.27
2073.66
2140.68
2211.67
2287
2367.1
2452.48
2543.89
2640.4
2740.86
2845.29
2953.61
3065.88
3182.19
3302.64
3427.28
3556.14
3689.22
3826.41
3967.44
4111.81
4258.63
4406.43
4552.86
4694.38
4825.08
4936.53
5006.8
1639.26
1684.5
1731.38
1780.4
1831.88
1885.96
1942.82
2002.71
2065.88
2132.59
2203.17
2277.96
2357.36
2441.93
2531.02
2624.15
2721.48
2823.03
2928.99
3039.63
3155.18
3275.87
3401.88
3533.39
3670.54
3813.32
3961.47
4114.27
4270.34
4427.14
4580.72
4723.52
4846.84
4927.28
1589.21
1632.01
1676.09
1722.32
1770.91
1821.89
1875.38
1931.59
1990.72
2053.01
2118.69
2188.05
2261.4
2339.19
2421.16
2507.2
2597.38
2691.8
2790.62
2894.16
3002.75
3116.65
3236.09
3361.26
3492.24
3629.1
3771.58
3918.89
4069.42
4220.13
4365.64
4498.57
4602.82
4691.54
1491.04
1531.19
1572.49
1615.08
1659.54
1706.12
1754.88
1805.92
1859.4
1915.48
1974.35
2036.19
2101.19
2169.58
2241.31
2316.94
2396.73
2480.84
2569.59
2663.39
2762.45
2866.85
2976.66
3091.99
3213.07
3339.74
3471.24
3606.17
3742
3874.64
3995.66
4094.72
4142.4
4110.23
2.05778
2.06383
2.09201
2.14173
2.21242
2.30756
2.43078
2.58543
2.77567
3.00674
3.28497
3.61822
4.01633
4.49187
5.06103
5.74514
6.57282
7.58312
8.83125
10.3965
12.3992
15.024
18.5821
23.4508
29.867
37.8496
47.6475
59.5897
74.0456
91.3673
111.856
135.725
163.012
193.515
226.709
261.712
297.271
331.857
363.8
391.538
413.803
429.893
439.624
443.475
442.185
437.021
428.809
419.461
408.686
1.91971
1.92564
1.95622
2.00886
2.0824
2.1804
2.30653
2.46407
2.65713
2.8909
3.17173
3.50744
3.90787
4.38556
4.95674
5.64274
6.47218
7.48418
8.73407
10.3015
12.3071
14.9369
18.504
23.3943
29.8568
37.922
47.8505
59.9914
74.7421
92.493
113.593
138.311
166.755
198.795
233.981
271.495
310.128
348.353
384.455
416.764
443.875
464.89
479.46
487.86
490.787
489.345
484.559
477.665
469.418
1.74499
1.75153
1.78322
1.83736
1.91248
2.012
2.13958
2.29845
2.49266
2.72736
3.00883
3.34487
3.74527
4.22252
4.79283
5.47743
6.30488
7.31433
8.56115
10.1252
12.1274
14.7546
18.3214
23.2247
29.7277
37.8738
47.9377
60.2904
75.3591
93.5716
115.327
140.954
170.628
204.294
241.576
281.72
323.558
365.566
405.982
443.031
475.153
501.26
520.819
533.944
541.205
543.584
542.078
537.965
532.078
1.52722
1.53484
1.56628
1.62052
1.69592
1.79547
1.92281
2.08119
2.27456
2.50798
2.78768
3.12137
3.51876
3.99224
4.55786
5.23676
6.05741
7.05885
8.2963
9.84955
11.8397
14.4543
18.0095
22.9136
29.4474
37.6691
47.8698
60.4479
75.8598
94.581
117.065
143.705
174.747
210.211
249.798
292.813
338.126
384.21
429.251
471.365
508.838
540.384
565.282
583.462
595.358
601.879
603.968
602.947
599.5
1.26872
1.27606
1.30661
1.3601
1.43473
1.5331
1.65886
1.81526
2.00614
2.23646
2.51235
2.84141
3.23323
3.70004
4.25775
4.9273
5.73694
6.72549
7.9479
9.48373
11.4538
14.0464
17.578
22.4692
29.0218
37.3117
47.6495
60.4569
76.23
95.4917
118.754
146.475
178.979
216.364
258.408
304.478
353.482
403.89
453.836
501.324
544.478
581.814
612.404
635.995
652.869
663.86
669.823
672.184
671.358
0.979858
0.987274
1.01703
1.06932
1.14255
1.23912
1.36257
1.51615
1.70357
1.92968
2.20048
2.52346
2.90803
3.36623
3.91374
4.57127
5.36674
6.33863
7.54141
9.05425
10.9976
13.5595
17.0571
21.9225
28.4799
36.8232
47.28
60.3004
76.4189
96.2084
120.242
149.047
183.027
222.365
266.918
316.124
368.936
423.827
478.883
532.003