/*--------------------------------*- C++ -*----------------------------------*\
| =========                 |                                                 |
| \\      /  F ield         | OpenFOAM: The Open Source CFD Toolbox           |
|  \\    /   O peration     | Version:  2.3.0                                 |
|   \\  /    A nd           | Web:      www.OpenFOAM.org                      |
|    \\/     M anipulation  |                                                 |
\*---------------------------------------------------------------------------*/
FoamFile
{
    version     2.0;
    format      ascii;
    class       surfaceScalarField;
    location    "100";
    object      phi;
}
// * * * * * * * * * * * * * * * * * * * * * * * * * * * * * * * * * * * * * //

dimensions      [0 3 -1 0 0 0 0];

internalField   nonuniform List<scalar> 
28550
(
0.661903
1.01589
-0.987884
-0.689909
0.633915
1.02026
-0.992271
0.605799
1.02494
-0.996827
0.577393
1.03015
-1.00174
0.548684
1.0356
-1.00689
0.519705
1.0413
-1.01232
0.490467
1.04739
-1.01815
0.460947
1.05395
-1.02443
0.431123
1.06104
-1.03122
0.400985
1.06875
-1.03862
0.370524
1.07721
-1.04675
0.339723
1.08656
-1.05576
0.308574
1.09702
-1.06587
0.276761
1.11986
-1.08804
0.247531
1.03
-1.00077
0.220709
0.947728
-0.920906
0.196133
0.8724
-0.847824
0.173656
0.803424
-0.780946
0.153134
0.740248
-0.719725
0.134436
0.682357
-0.66366
0.117432
0.629281
-0.612278
0.102005
0.580578
-0.565151
0.0880359
0.535848
-0.521879
0.0754229
0.494719
-0.482106
0.0640418
0.456872
-0.44549
0.0538189
0.421979
-0.411756
0.0445931
0.389854
-0.380629
0.0363305
0.360078
-0.351815
0.0287825
0.33287
-0.325321
0.0220379
0.30702
-0.300275
0.015581
0.284769
-0.278312
0.0100331
0.261099
-0.255551
0.00424825
0.24607
-0.240285
0.216056
-0.211808
0.606591
1.04068
-0.631384
0.581538
1.04531
0.556316
1.05017
0.530913
1.05555
0.505257
1.06126
0.479309
1.06725
0.453078
1.07362
0.426563
1.08047
0.399744
1.08786
0.372603
1.09589
0.345124
1.10469
0.317292
1.1144
0.289093
1.12522
0.26023
1.14872
0.233651
1.05658
0.209209
0.972171
0.186763
0.894846
0.166187
0.824
0.147358
0.759076
0.130159
0.699557
0.11448
0.64496
0.100214
0.594844
0.0872512
0.548811
0.0754958
0.506474
0.0648217
0.467546
0.055153
0.431647
0.0463137
0.398694
0.0382745
0.368117
0.0307655
0.340379
0.0238788
0.313907
0.0171802
0.291468
0.0112795
0.267
0.0051416
0.252208
0.221198
0.561288
1.0631
-0.583705
0.538617
1.06798
0.515681
1.0731
0.492533
1.0787
0.46916
1.08463
0.445513
1.09089
0.421569
1.09757
0.39733
1.10471
0.372781
1.11241
0.347898
1.12078
0.32266
1.12993
0.29705
1.14001
0.271045
1.15122
0.244361
1.1754
0.219721
1.08122
0.197
0.994892
0.176076
0.91577
0.156834
0.843241
0.139171
0.77674
0.122983
0.715745
0.108172
0.659772
0.0946395
0.608376
0.0822887
0.561161
0.0710376
0.517725
0.0607615
0.477822
0.0514124
0.440996
0.042816
0.40729
0.0350331
0.3759
0.0277351
0.347677
0.0211554
0.320486
0.0148701
0.297753
0.00949216
0.272378
0.00418642
0.257514
0.225384
0.51702
1.08342
-0.537344
0.496511
1.08849
0.475745
1.09387
0.454731
1.09971
0.433484
1.10587
0.411962
1.11242
0.390131
1.1194
0.367988
1.12685
0.34552
1.13488
0.322703
1.14359
0.299512
1.15312
0.27592
1.1636
0.251899
1.17524
0.227178
1.20012
0.204279
1.10412
0.183089
1.01608
0.163508
0.935351
0.145437
0.861312
0.128782
0.793394
0.11346
0.731067
0.099378
0.673854
0.0864576
0.621296
0.0746104
0.573009
0.0637666
0.528569
0.053829
0.487759
0.0447699
0.450056
0.0364557
0.415604
0.0289658
0.383389
0.0220704
0.354572
0.0160964
0.32646
0.010618
0.303231
0.00638964
0.276606
0.0025453
0.261358
0.22793
0.496636
1.10229
-0.515504
0.477565
1.10756
0.458213
1.11322
0.438596
1.11933
0.418743
1.12573
0.398623
1.13254
0.378191
1.13983
0.357426
1.14762
0.336314
1.15599
0.314834
1.16507
0.292956
1.175
0.270646
1.18591
0.247873
1.19802
0.224366
1.22363
0.202518
1.12597
0.182239
1.03636
0.163433
0.954157
0.146017
0.878728
0.129914
0.809497
0.115042
0.745939
0.101327
0.687569
0.0886988
0.633924
0.0770825
0.584625
0.0664342
0.539218
0.0566559
0.497538
0.0477607
0.458951
0.0396067
0.423758
0.0322808
0.390715
0.0255511
0.361302
0.0196234
0.332388
0.014055
0.3088
0.00920546
0.281456
0.00433263
0.266231
0.232262
0.457937
1.11911
-0.474754
0.440942
1.12456
0.42367
1.13049
0.406114
1.13689
0.388294
1.14355
0.370198
1.15063
0.351788
1.15824
0.333031
1.16637
0.313912
1.17511
0.294401
1.18459
0.274468
1.19493
0.254076
1.2063
0.233183
1.21891
0.211532
1.24528
0.191326
1.14618
0.172488
1.0552
0.154948
0.971696
0.138641
0.895035
0.123497
0.824641
0.109457
0.759979
0.0964582
0.700568
0.0844449
0.645938
0.0733514
0.595718
0.0631399
0.549429
0.053733
0.506945
0.0451329
0.467551
0.0372361
0.431655
0.0300906
0.397861
0.0235396
0.367853
0.0177195
0.338208
0.0123408
0.314178
0.00775474
0.286042
0.00340838
0.270577
0.235671
0.433136
1.13438
-0.448409
0.417673
1.14002
0.401931
1.14623
0.385897
1.15292
0.369584
1.15986
0.352981
1.16724
0.336055
1.17516
0.318771
1.18366
0.301099
1.19278
0.283011
1.20267
0.264477
1.21346
0.24545
1.22533
0.225884
1.23848
0.205526
1.26564
0.186446
1.16526
0.168586
1.07306
0.151891
0.988392
0.136308
0.910618
0.121787
0.839162
0.108278
0.773487
0.0957325
0.713114
0.084102
0.657568
0.0733274
0.606493
0.0633822
0.559374
0.0541734
0.516154
0.0457177
0.476007
0.037886
0.439487
0.0307491
0.404998
0.0241335
0.374468
0.018211
0.344131
0.0127037
0.319686
0.00797359
0.290772
0.00356615
0.274985
0.239237
0.404671
1.14786
-0.41815
0.391013
1.15368
0.377066
1.16018
0.362813
1.16718
0.348257
1.17441
0.333392
1.1821
0.318195
1.19036
0.302628
1.19922
0.286654
1.20876
0.270241
1.21909
0.253352
1.23035
0.235941
1.24274
0.217956
1.25646
0.199149
1.28445
0.181436
1.18297
0.164774
1.08972
0.149128
1.00404
0.134463
0.925284
0.120744
0.852881
0.107941
0.78629
0.0960155
0.72504
0.0849334
0.66865
0.0746437
0.616783
0.0651164
0.568901
0.0562697
0.525
0.0480924
0.484184
0.0404827
0.447096
0.0334384
0.412042
0.0268416
0.381065
0.0207281
0.350244
0.0149302
0.325484
0.00961206
0.29609
0.0044179
0.280179
0.243655
0.377298
1.15986
-0.389304
0.365099
1.16588
0.352629
1.17265
0.339851
1.17995
0.326752
1.18751
0.31332
1.19553
0.299536
1.20414
0.285363
1.2134
0.270755
1.22337
0.255675
1.23416
0.240081
1.24595
0.223919
1.2589
0.207131
1.27325
0.18947
1.30211
0.17273
1.19971
0.15689
1.10556
0.141929
1.019
0.127828
0.939385
0.11457
0.866138
0.102137
0.798723
0.0905124
0.736665
0.0796872
0.679476
0.0696223
0.626848
0.0603239
0.5782
0.051707
0.533617
0.0437943
0.492097
0.0364616
0.454429
0.0297509
0.418753
0.0235043
0.387312
0.0178307
0.355918
0.0125252
0.330789
0.00785557
0.30076
0.00349826
0.284536
0.247153
0.360352
1.17068
-0.371168
0.349318
1.17691
0.337984
1.18399
0.326333
1.1916
0.314338
1.19951
0.301987
1.20788
0.28926
1.21687
0.276121
1.22654
0.262522
1.23697
0.248416
1.24827
0.233756
1.26061
0.218485
1.27417
0.202534
1.2892
0.185657
1.31899
0.16957
1.2158
0.154262
1.12087
0.139725
1.03354
0.125955
0.953155
0.11294
0.879153
0.100677
0.810986
0.0891503
0.748191
0.0783611
0.690265
0.0682912
0.636917
0.0589589
0.587532
0.0503465
0.54223
0.0424666
0.499977
0.035286
0.46161
0.0287897
0.425249
0.022883
0.393219
0.0175188
0.361282
0.0125337
0.335774
0.00798845
0.305305
0.00355379
0.288971
0.250707
0.324842
1.17966
-0.333822
0.315658
1.1861
0.306188
1.19345
0.296396
1.2014
0.286252
1.20965
0.27573
1.21841
0.264815
1.22779
0.253465
1.23788
0.241634
1.2488
0.229271
1.26063
0.216318
1.27356
0.202716
1.28777
0.188393
1.30352
0.173105
1.33427
0.158407
1.23049
0.144313
1.13496
0.130833
1.04701
0.117975
0.966012
0.105746
0.891382
0.094145
0.822588
0.0831685
0.759168
0.0728152
0.700618
0.0630524
0.64668
0.0539035
0.596681
0.0453198
0.550813
0.037365
0.507931
0.029997
0.468978
0.0233373
0.431909
0.017343
0.399213
0.0122273
0.366398
0.00782024
0.340181
0.00446871
0.308656
0.00166922
0.29177
0.252376
0.321228
1.18739
-0.328956
0.313252
1.19407
0.304979
1.20173
0.296382
1.20999
0.287421
1.21861
0.278069
1.22776
0.268307
1.23755
0.2581
1.24809
0.247394
1.2595
0.236136
1.27189
0.224269
1.28543
0.211726
1.30031
0.198434
1.31682
0.184161
1.34855
0.170356
1.2443
0.157049
1.14827
0.144264
1.0598
0.132027
0.97825
0.120352
0.903057
0.109257
0.833683
0.0987321
0.769692
0.0887795
0.710571
0.0793645
0.656095
0.0704618
0.605584
0.0620211
0.559254
0.0539777
0.515975
0.046306
0.476649
0.0389112
0.439304
0.0318136
0.406311
0.0249215
0.37329
0.0182409
0.346862
0.011798
0.315099
0.00550151
0.298067
0.257878
0.294041
1.19398
-0.300629
0.28719
1.20092
0.280024
1.20889
0.272523
1.21749
0.26464
1.2265
0.256337
1.23606
0.247591
1.2463
0.238365
1.25732
0.228608
1.26926
0.218255
1.28225
0.207244
1.29644
0.195503
1.31206
0.182947
1.32937
0.169341
1.36215
0.156071
1.25757
0.143177
1.16117
0.130703
1.07227
0.11869
0.990263
0.107174
0.914572
0.0961924
0.844665
0.0857711
0.780114
0.0759455
0.720396
0.066712
0.665329
0.0581038
0.614192
0.0500811
0.567277
0.0426526
0.523403
0.035747
0.483555
0.0293306
0.44572
0.023341
0.4123
0.0177527
0.378878
0.012515
0.3521
0.00774101
0.319873
0.00329401
0.302514
0.261172
0.271872
1.19961
-0.277502
0.265972
1.20682
0.259739
1.21513
0.25315
1.22408
0.246161
1.23349
0.238728
1.24349
0.230825
1.2542
0.222409
1.26573
0.213428
1.27824
0.203815
1.29186
0.193501
1.30675
0.182407
1.32315
0.170446
1.34133
0.15738
1.37522
0.144539
1.27041
0.131978
1.17373
0.119751
1.0845
0.107905
1.00211
0.096483
0.925994
0.0855304
0.855618
0.0750758
0.790568
0.0651677
0.730304
0.0558302
0.674666
0.0471076
0.622915
0.0390437
0.57534
0.0316594
0.530788
0.0250183
0.490196
0.0191265
0.451612
0.0140139
0.417413
0.00975381
0.383138
0.00613464
0.355719
0.00343044
0.322578
0.00107789
0.304866
0.26225
0.259225
1.20383
-0.263446
0.2547
1.21135
0.249858
1.21997
0.244661
1.22928
0.239053
1.23909
0.232993
1.24955
0.226447
1.26074
0.219378
1.2728
0.211732
1.28589
0.203443
1.30015
0.194444
1.31575
0.184657
1.33294
0.173997
1.35199
0.162246
1.38697
0.150606
1.28205
0.139154
1.18518
0.127952
1.0957
0.117062
1.013
0.106533
0.936523
0.0964033
0.865747
0.086699
0.800273
0.0774453
0.739558
0.0686301
0.683482
0.0602702
0.631275
0.0523377
0.583273
0.044844
0.538281
0.0377579
0.497282
0.0310963
0.458273
0.024836
0.423673
0.0190201
0.388954
0.0135182
0.361221
0.00845249
0.327643
0.00367022
0.309649
0.26592
0.24388
1.20726
-0.247309
0.240112
1.21512
0.235994
1.22409
0.231512
1.23376
0.226604
1.244
0.221225
1.25493
0.215337
1.26663
0.208899
1.27924
0.201857
1.29293
0.194148
1.30786
0.185698
1.3242
0.176431
1.3422
0.166263
1.36216
0.154985
1.39825
0.143763
1.29327
0.132682
1.19626
0.121824
1.10656
0.111253
1.02357
0.101026
0.946751
0.0911949
0.875578
0.0817895
0.809678
0.0728464
0.748501
0.0643782
0.69195
0.0563823
0.63927
0.0488762
0.590779
0.041775
0.545383
0.0351399
0.503917
0.0288152
0.464598
0.0229201
0.429568
0.0173618
0.394512
0.0121602
0.366422
0.00740078
0.332403
0.00290431
0.314145
0.268824
0.219025
1.21
-0.221772
0.215934
1.21821
0.212485
1.22754
0.208645
1.2376
0.204356
1.24829
0.199567
1.25972
0.194239
1.27196
0.188324
1.28515
0.18177
1.29948
0.174509
1.31512
0.166469
1.33224
0.157572
1.3511
0.147734
1.372
0.136747
1.40923
0.125761
1.30426
0.11488
1.20714
0.104204
1.11724
0.0938156
1.03396
0.0837836
0.956783
0.0741654
0.885196
0.0649963
0.818847
0.056312
0.757185
0.048131
0.700131
0.0404894
0.646912
0.0334078
0.597861
0.0269471
0.551843
0.0211074
0.509757
0.0160139
0.469691
0.0115555
0.434027
0.00790018
0.398168
0.00479756
0.369525
0.00241311
0.334787
0.000308401
0.31625
0.269132
0.210065
1.21186
-0.211922
0.207828
1.22044
0.205234
1.23013
0.20225
1.24059
0.198812
1.25173
0.194871
1.26366
0.190385
1.27645
0.185308
1.29023
0.179589
1.3052
0.173166
1.32154
0.165972
1.33944
0.157933
1.35914
0.148979
1.38096
0.138927
1.41929
0.128842
1.31434
0.118841
1.21714
0.10903
1.12705
0.0995051
1.04348
0.090347
0.965941
0.0816197
0.893924
0.0733712
0.827096
0.0656307
0.764926
0.0583895
0.707372
0.051617
0.653685
0.0452799
0.604198
0.0392559
0.557867
0.0335582
0.515455
0.0280015
0.475248
0.0226889
0.439339
0.0174792
0.403378
0.0124499
0.374554
0.00759288
0.339644
0.00275212
0.321091
0.271885
0.192965
1.21415
-0.195255
0.190281
1.22313
0.18722
1.23319
0.183759
1.24405
0.179833
1.25565
0.175393
1.2681
0.170394
1.28145
0.164795
1.29583
0.158545
1.31145
0.151584
1.3285
0.143851
1.34717
0.135278
1.36771
0.125794
1.39044
0.115223
1.42986
0.104684
1.32488
0.0942942
1.22753
0.084143
1.1372
0.0743182
1.05331
0.0648769
0.975382
0.0558808
0.90292
0.0473685
0.835608
0.0393906
0.772904
0.0319971
0.714765
0.0252345
0.660447
0.0191767
0.610256
0.0138751
0.563169
0.00936497
0.519965
0.00572345
0.47889
0.00281988
0.442243
0.000769044
0.405428
-0.000675202
0.375999
-0.00150526
0.340474
-0.00175101
0.321337
0.270134
0.175171
1.21563
-0.176649
0.17334
1.22496
0.171181
1.23535
0.168675
1.24655
0.165763
1.25857
0.162408
1.27146
0.158578
1.28528
0.154235
1.30017
0.149347
1.31634
0.143875
1.33397
0.137773
1.35327
0.131003
1.37448
0.123523
1.39792
0.115213
1.43817
0.106976
1.33312
0.0989114
1.2356
0.0911056
1.14501
0.0836206
1.06079
0.0765058
0.982497
0.0697796
0.909646
0.0634498
0.841938
0.0574942
0.778859
0.0518721
0.720388
0.0465254
0.665794
0.0413948
0.615386
0.0363893
0.568174
0.0314821
0.524872
0.0265675
0.483804
0.0216798
0.447131
0.0167352
0.410373
0.0118353
0.380899
0.00688515
0.345425
0.00245461
0.325767
0.272588
0.158848
1.21829
-0.161508
0.155837
1.22797
0.152504
1.23868
0.148831
1.25023
0.144765
1.26263
0.140269
1.27595
0.135315
1.29023
0.129872
1.30562
0.12391
1.3223
0.117393
1.34049
0.110287
1.36038
0.102555
1.38222
0.0941645
1.40631
0.0849981
1.44733
0.0760418
1.34207
0.0673816
1.24426
0.0590838
1.1533
0.0512089
1.06867
0.0437955
0.98991
0.0368893
0.916552
0.0305119
0.848315
0.0246948
0.784676
0.0194567
0.725626
0.0148007
0.67045
0.0107482
0.619439
0.00727329
0.571649
0.00437756
0.527768
0.00204653
0.486135
0.000184141
0.448993
-0.00115584
0.411713
-0.00207129
0.381814
-0.00267381
0.346027
-0.00228799
0.325382
0.2703
0.141773
1.22064
-0.144129
0.139099
1.23065
0.136137
1.24165
0.132872
1.25349
0.129261
1.26624
0.125276
1.27994
0.120891
1.29462
0.116083
1.31043
0.11083
1.32756
0.105112
1.34621
0.0989024
1.36659
0.0921823
1.38894
0.0849362
1.41355
0.0770764
1.45519
0.0694633
1.34969
0.0621644
1.25156
0.0552391
1.16023
0.0487139
1.07519
0.0426178
0.996006
0.0369446
0.922225
0.0317003
0.853559
0.026868
0.789509
0.0224389
0.730055
0.0184091
0.67448
0.0147615
0.623086
0.0115178
0.574893
0.00863661
0.530649
0.00614631
0.488626
0.00396483
0.451175
0.00208907
0.413589
0.000472125
0.383431
-0.000907371
0.347407
-0.00149683
0.325971
0.268803
0.12643
1.22275
-0.128533
0.124043
1.23303
0.121397
1.24429
0.118491
1.2564
0.115277
1.26946
0.111739
1.28348
0.107857
1.2985
0.103614
1.31467
0.0989984
1.33217
0.0939963
1.35121
0.0885952
1.37199
0.0827833
1.39475
0.0765631
1.41978
0.0698715
1.46188
0.063452
1.35611
0.0573703
1.25764
0.0516669
1.16593
0.0463822
1.08048
0.0415195
1.00087
0.0370937
0.926651
0.0330697
0.857584
0.0294282
0.79315
0.0261118
0.733371
0.0230588
0.677533
0.0202111
0.625934
0.0174779
0.577626
0.0148218
0.533305
0.0121771
0.49127
0.00953932
0.453812
0.00689773
0.41623
0.0042243
0.386105
0.00160369
0.350027
-0.000234574
0.327809
0.268569
0.118867
1.22598
-0.122095
0.115356
1.23654
0.111607
1.24804
0.1076
1.2604
0.103304
1.27375
0.0986975
1.28808
0.0937631
1.30343
0.0884852
1.31995
0.0828545
1.3378
0.076859
1.3572
0.0704872
1.37836
0.0637296
1.4015
0.0565841
1.42692
0.0489784
1.46949
0.0417388
1.36335
0.034908
1.26447
0.0285251
1.17231
0.0226095
1.08639
0.0171924
1.00629
0.0122715
0.931572
0.00787914
0.861976
0.00400634
0.797023
0.000678455
0.736699
-0.00210745
0.680319
-0.00435162
0.628178
-0.00604327
0.579318
-0.00721833
0.53448
-0.00786749
0.49192
-0.0079941
0.453939
-0.00769761
0.415934
-0.00698939
0.385396
-0.00611161
0.34915
-0.00402048
0.325718
0.264548
0.110111
1.22864
-0.112771
0.107197
1.23946
0.104075
1.25116
0.10074
1.26374
0.0971653
1.27733
0.093338
1.29191
0.0892459
1.30752
0.0848822
1.32431
0.0802438
1.34244
0.075331
1.36212
0.0701407
1.38355
0.0646776
1.40697
0.0589495
1.43265
0.0529149
1.47552
0.0472305
1.36903
0.0419264
1.26977
0.0370125
1.17723
0.0324971
1.09091
0.0283625
1.01042
0.0246076
0.935327
0.021193
0.865391
0.0181123
0.800104
0.0153166
0.739495
0.0127873
0.682848
0.0104947
0.630471
0.00839473
0.581418
0.0064886
0.536386
0.00471225
0.493696
0.00309144
0.45556
0.00158687
0.417438
0.000143905
0.386839
-0.00129251
0.350586
-0.00169695
0.326123
0.262851
0.0897685
1.23104
-0.0921712
0.0871535
1.24207
0.0843592
1.25396
0.0813873
1.26671
0.0782079
1.28051
0.07482
1.2953
0.0712112
1.31113
0.0673806
1.32814
0.0633319
1.34649
0.0590684
1.36638
0.0545978
1.38802
0.0499335
1.41163
0.0450896
1.43749
0.0400453
1.48057
0.0353574
1.37372
0.0310366
1.27409
0.0270928
1.18117
0.0235073
1.09449
0.0202744
1.01365
0.0173599
0.938241
0.0147557
0.867995
0.0124103
0.802449
0.0103198
0.741585
0.00843184
0.684736
0.00672366
0.632179
0.00517128
0.58297
0.00372951
0.537828
0.00241037
0.495015
0.00114167
0.456829
-5.54714e-05
0.418636
-0.0011374
0.387921
-0.00222816
0.351677
-0.00209715
0.325992
0.260754
0.079501
1.23393
-0.0823887
0.0764128
1.24516
0.0731583
1.25721
0.069742
1.27013
0.0661376
1.28411
0.0623445
1.29909
0.058356
1.31512
0.054171
1.33233
0.0497944
1.35087
0.0452349
1.37094
0.0405009
1.39275
0.035608
1.41653
0.0305826
1.44252
0.0254032
1.48575
0.0206456
1.37848
0.0163202
1.27842
0.0124192
1.18507
0.00893734
1.09798
0.0058474
1.01674
0.0031342
0.940955
0.000761458
0.870367
-0.00127455
0.804485
-0.00301119
0.743322
-0.00443874
0.686163
-0.00557331
0.633314
-0.0064158
0.583813
-0.00695786
0.53837
-0.00722743
0.495285
-0.00720661
0.456808
-0.00700245
0.418432
-0.00646415
0.387383
-0.00581881
0.351032
-0.00381727
0.32399
0.256937
0.0661179
1.23636
-0.0685503
0.0635135
1.24777
0.0607729
1.25995
0.0579057
1.27299
0.0548894
1.28713
0.0517294
1.30225
0.0484197
1.31843
0.0449672
1.33578
0.0413794
1.35445
0.0376695
1.37465
0.033856
1.39657
0.0299605
1.42042
0.0260159
1.44646
0.0220294
1.48974
0.0184562
1.38205
0.0153065
1.28157
0.0125796
1.1878
0.0102567
1.1003
0.00832362
1.01868
0.0067385
0.94254
0.00547291
0.871633
0.00445611
0.805502
0.0036637
0.744114
0.00300142
0.686826
0.00244453
0.633871
0.00190499
0.584352
0.00137232
0.538903
0.000766702
0.49589
0.000112554
0.457462
-0.000694566
0.419239
-0.00149337
0.388182
-0.00246252
0.352001
-0.00217234
0.3237
0.254765
0.0535042
1.23911
-0.0562605
0.0505937
1.25068
0.0475667
1.26298
0.0444247
1.27614
0.0411539
1.2904
0.0377556
1.30565
0.0342312
1.32196
0.0305819
1.33943
0.0268216
1.35821
0.0229594
1.37851
0.0190128
1.40051
0.0150043
1.42443
0.010963
1.4505
0.00689139
1.49381
0.00324879
1.38569
3.77738e-05
1.28478
-0.00274574
1.19058
-0.00510952
1.10266
-0.00707249
1.02064
-0.0086423
0.94411
-0.00985334
0.872844
-0.0107057
0.806354
-0.0112577
0.744666
-0.0114965
0.687065
-0.0114987
0.633873
-0.0112542
0.584108
-0.0108136
0.538462
-0.0102036
0.49528
-0.00943003
0.456688
-0.00859059
0.418399
-0.00755404
0.387145
-0.00650892
0.350956
-0.00404014
0.321231
0.250724
0.046096
1.2416
-0.0485801
0.0434849
1.25329
0.0407829
1.26568
0.0379983
1.27892
0.0351156
1.29328
0.0321461
1.30862
0.0290853
1.32502
0.0259447
1.34257
0.0227333
1.36143
0.0194692
1.38178
0.0161675
1.40382
0.0128526
1.42774
0.00955344
1.4538
0.00627242
1.49709
0.00337786
1.38859
0.000854538
1.2873
-0.00131533
1.19275
-0.00315941
1.10451
-0.00469272
1.02217
-0.00595646
0.945373
-0.0069543
0.873842
-0.00773148
0.807132
-0.00827556
0.74521
-0.00863939
0.687428
-0.00879348
0.634027
-0.00879065
0.584105
-0.00859326
0.538265
-0.00827449
0.494962
-0.00778156
0.456195
-0.00724154
0.417859
-0.00652024
0.386424
-0.00578299
0.350218
-0.00369044
0.319139
0.247034
0.0369217
1.24346
-0.0387816
0.0349641
1.25524
0.0329548
1.26769
0.0308935
1.28098
0.0287746
1.2954
0.0266109
1.31078
0.0244017
1.32723
0.0221618
1.34481
0.0199041
1.36368
0.0176457
1.38403
0.01541
1.40605
0.0132201
1.42993
0.0111053
1.45592
0.00908601
1.49911
0.00738522
1.39029
0.0059801
1.28871
0.0048412
1.19389
0.00393422
1.10541
0.0032165
1.02289
0.00265464
0.945935
0.00220304
0.874294
0.00183408
0.807501
0.001499
0.745546
0.00118371
0.687744
0.000844617
0.634366
0.000463689
0.584486
3.22113e-05
0.538696
-0.000488158
0.495482
-0.00105522
0.456762
-0.00174563
0.41855
-0.00241471
0.387093
-0.00312186
0.350926
-0.00249392
0.318511
0.24454
0.0235508
1.24544
-0.0255352
0.021484
1.25731
0.0193778
1.2698
0.017235
1.28312
0.015052
1.29758
0.0128408
1.31299
0.0106044
1.32946
0.00835319
1.34706
0.00610304
1.36593
0.00387051
1.38627
0.00167662
1.40825
-0.000455659
1.43207
-0.00249549
1.45796
-0.00442968
1.50104
-0.00603973
1.3919
-0.00735012
1.29002
-0.00838882
1.19493
-0.00918922
1.10621
-0.00977971
1.02348
-0.0101973
0.946353
-0.0104613
0.874558
-0.0106103
0.80765
-0.0106393
0.745575
-0.0105879
0.687692
-0.0104336
0.634212
-0.0101969
0.584249
-0.00982845
0.538328
-0.00938552
0.495039
-0.00878094
0.456158
-0.00813585
0.417905
-0.00727465
0.386232
-0.00630647
0.349958
-0.0039644
0.316169
0.240576
0.0105482
1.24716
-0.0122631
0.00877077
1.25909
0.00698377
1.27158
0.00518202
1.28493
0.00336299
1.2994
0.00154509
1.31481
-0.00027328
1.33128
-0.00207184
1.34886
-0.00384007
1.3677
-0.00555945
1.38799
-0.00720854
1.40989
-0.00875898
1.43362
-0.0101811
1.45938
-0.0114471
1.50231
-0.0124083
1.39286
-0.0130842
1.29069
-0.0134975
1.19534
-0.01367
1.10639
-0.0136284
1.02344
-0.0133896
0.946114
-0.0129839
0.874152
-0.0124269
0.807093
-0.0117609
0.744909
-0.0109916
0.686923
-0.0101856
0.633406
-0.0093484
0.583412
-0.00851752
0.537497
-0.00775804
0.49428
-0.00703137
0.455431
-0.00646361
0.417337
-0.00586196
0.38563
-0.00530042
0.349396
-0.00342605
0.314294
0.23715
0.00314274
1.24896
-0.00494269
0.00129735
1.26093
-0.000540182
1.27342
-0.00237863
1.28676
-0.00421693
1.30124
-0.00603503
1.31663
-0.00783187
1.33308
-0.0095923
1.35062
-0.0113042
1.36941
-0.0129475
1.38963
-0.0145008
1.41145
-0.0159405
1.43506
-0.0172367
1.46068
-0.0183622
1.50343
-0.0191832
1.39368
-0.0197288
1.29124
-0.0200201
1.19564
-0.0200893
1.10646
-0.0199542
1.0233
-0.0196465
0.945806
-0.0191803
0.873686
-0.0185838
0.806496
-0.0178636
0.744188
-0.0170402
0.6861
-0.0161239
0.632489
-0.0151173
0.582405
-0.014002
0.536382
-0.0128288
0.493106
-0.0115386
0.454141
-0.0102503
0.416049
-0.00879827
0.384178
-0.00722576
0.347824
-0.00430017
0.311369
0.232849
-0.00592283
1.25016
0.00471634
-0.00714849
1.26216
-0.00833263
1.27461
-0.00949388
1.28793
-0.0106172
1.30236
-0.0116892
1.3177
-0.0127034
1.33409
-0.0136428
1.35156
-0.0144916
1.37026
-0.0152296
1.39037
-0.0158347
1.41205
-0.0162814
1.4355
-0.0165363
1.46093
-0.0165627
1.50346
-0.0163491
1.39347
-0.0159241
1.29081
-0.0153229
1.19503
-0.0145764
1.10571
-0.0137215
1.02245
-0.0127861
0.944871
-0.0118081
0.872708
-0.010811
0.805499
-0.00983194
0.743209
-0.00889152
0.685159
-0.00802127
0.631619
-0.00723902
0.581623
-0.00654012
0.535683
-0.00599806
0.492564
-0.00553018
0.453673
-0.00526323
0.415782
-0.0049901
0.383905
-0.0047088
0.347542
-0.00309804
0.309758
0.229751
-0.0170705
1.25126
0.0159739
-0.0181616
1.26325
-0.0191948
1.27564
-0.0201883
1.28892
-0.0211276
1.3033
-0.0219951
1.31857
-0.0227864
1.33488
-0.0234818
1.35225
-0.0240692
1.37085
-0.0245274
1.39083
-0.0248357
1.41236
-0.0249691
1.43564
-0.0249004
1.46086
-0.0245905
1.50315
-0.02407
1.39295
-0.023373
1.29012
-0.0225341
1.1942
-0.0215859
1.10476
-0.0205607
1.02142
-0.0194855
0.943796
-0.0183821
0.871604
-0.0172729
0.80439
-0.0161682
0.742105
-0.0150777
0.684069
-0.014011
0.630553
-0.0129598
0.580572
-0.0119061
0.534629
-0.0108907
0.491549
-0.00983671
0.452619
-0.00885365
0.414799
-0.00776342
0.382815
-0.00649952
0.346278
-0.00386148
0.30712
0.22589
-0.0266334
1.25211
0.0257886
-0.027449
1.26407
-0.028189
1.27638
-0.0288704
1.2896
-0.0294749
1.30391
-0.0299876
1.31908
-0.0303998
1.33529
-0.0306934
1.35255
-0.0308552
1.37101
-0.030866
1.39084
-0.0307034
1.4122
-0.0303447
1.43528
-0.0297604
1.46028
-0.0289141
1.5023
-0.0278883
1.39192
-0.0267209
1.28895
-0.0254474
1.19292
-0.0240937
1.10341
-0.022694
1.02003
-0.0212639
0.942365
-0.0198308
0.870171
-0.0184029
0.802962
-0.0170013
0.740703
-0.0156224
0.68269
-0.0143009
0.629231
-0.0130114
0.579283
-0.0117725
0.53339
-0.0106146
0.490391
-0.00948524
0.45149
-0.00848709
0.4138
-0.00743767
0.381766
-0.00622173
0.345062
-0.0036768
0.304575
0.222213
-0.0352956
1.25272
0.0346837
-0.0358552
1.26463
-0.0363248
1.27685
-0.0367181
1.28999
-0.0370116
1.3042
-0.0371928
1.31926
-0.037253
1.33535
-0.0371733
1.35247
-0.0369404
1.37078
-0.036533
1.39043
-0.0359325
1.4116
-0.0351144
1.43446
-0.0340531
1.45922
-0.0327024
1.50095
-0.0312045
1.39042
-0.0295978
1.28734
-0.0279135
1.19124
-0.0261836
1.10168
-0.0244366
1.01828
-0.022696
0.940625
-0.020982
0.868457
-0.0193116
0.801292
-0.0177014
0.739093
-0.016158
0.681146
-0.0146976
0.627771
-0.0133114
0.577896
-0.0119978
0.532077
-0.0107875
0.489181
-0.00961728
0.45032
-0.00858591
0.412769
-0.00752148
0.380701
-0.0062351
0.343776
-0.00362468
0.301965
0.218588
-0.0414852
1.25319
0.0410152
-0.0418829
1.26502
-0.0421748
1.27714
-0.0423715
1.29019
-0.0424534
1.30428
-0.042404
1.31921
-0.0422148
1.33517
-0.0418671
1.35212
-0.0413482
1.37026
-0.0406377
1.38972
-0.0397169
1.41068
-0.0385607
1.4333
-0.0371478
1.4578
-0.0354279
1.49923
-0.0335858
1.38858
-0.0316562
1.28541
-0.0296781
1.18926
-0.0276776
1.09968
-0.0256855
1.01629
-0.0237186
0.938658
-0.0218028
0.866542
-0.0199444
0.799433
-0.0181679
0.737316
-0.0164683
0.679447
-0.0148745
0.626177
-0.0133631
0.576385
-0.0119628
0.530677
-0.0106874
0.487905
-0.00948668
0.449119
-0.00845462
0.411737
-0.00739145
0.379638
-0.00608561
0.34247
-0.00346025
0.29934
0.215128
-0.0533812
1.25337
0.0531962
-0.0534721
1.26511
-0.053444
1.27711
-0.0533053
1.29005
-0.0530308
1.30401
-0.0526099
1.31879
-0.0520294
1.33459
-0.0512718
1.35136
-0.0503234
1.36931
-0.0491679
1.38856
-0.0477836
1.40929
-0.046151
1.43167
-0.0442451
1.4559
-0.0420168
1.497
-0.0397034
1.38627
-0.0373405
1.28305
-0.0349671
1.18689
-0.0326083
1.09732
-0.0302957
1.01397
-0.0280442
0.936407
-0.0258763
0.864374
-0.0237986
0.797355
-0.0218239
0.735342
-0.019937
0.67756
-0.0181585
0.624398
-0.0164456
0.574672
-0.0148187
0.52905
-0.0132585
0.486345
-0.011728
0.447589
-0.0102915
0.410301
-0.00879095
0.378138
-0.00696099
0.340641
-0.00381025
0.296189
0.211318
-0.0632925
1.25306
0.0636047
-0.0628637
1.26469
-0.0622987
1.27655
-0.0615972
1.28935
-0.0607413
1.30315
-0.0597118
1.31776
-0.0584981
1.33337
-0.0570821
1.34995
-0.0554519
1.36768
-0.053585
1.3867
-0.0514652
1.40717
-0.0490712
1.42928
-0.0463813
1.45321
-0.0433341
1.49396
-0.0402569
1.38319
-0.0371837
1.27998
-0.0341527
1.18386
-0.0311821
1.09435
-0.0283049
1.0111
-0.0255332
0.933635
-0.0228914
0.861732
-0.020393
0.794857
-0.0180548
0.733003
-0.0158912
0.675396
-0.0139212
0.622428
-0.0121465
0.572897
-0.010578
0.527481
-0.00926211
0.485029
-0.00811123
0.446438
-0.00723799
0.409427
-0.0064162
0.377316
-0.00533832
0.339563
-0.0030119
0.293863
0.208306
-0.069126
1.25289
0.0692948
-0.06883
1.26439
-0.0683913
1.27611
-0.0678067
1.28877
-0.0670563
1.3024
-0.0661249
1.31683
-0.0650005
1.33225
-0.0636681
1.34861
-0.0621141
1.36613
-0.0603236
1.38491
-0.05828
1.40513
-0.0559661
1.42696
-0.053362
1.4506
-0.0504206
1.49102
-0.0474591
1.38023
-0.0445139
1.27703
-0.0416224
1.18096
-0.0388026
1.09153
-0.0360801
1.00837
-0.0334561
0.931011
-0.0309464
0.859222
-0.0285369
0.792448
-0.0262454
0.730712
-0.0240279
0.673179
-0.0219193
0.62032
-0.0198401
0.570818
-0.0178559
0.525497
-0.0158988
0.483072
-0.0139661
0.444505
-0.0121008
0.407562
-0.0101152
0.37533
-0.00770982
0.337158
-0.00404292
0.290196
0.204263
-0.0797861
1.2521
0.0805803
-0.0788403
1.26344
-0.07773
1.275
-0.0764509
1.28749
-0.074984
1.30094
-0.0733075
1.31516
-0.0714134
1.33035
-0.0692806
1.34648
-0.0668992
1.36375
-0.064251
1.38226
-0.0613217
1.4022
-0.0580899
1.42373
-0.054544
1.44706
-0.0506232
1.48709
-0.046754
1.37636
-0.0429761
1.27325
-0.0393257
1.17731
-0.0358241
1.08803
-0.0324955
1.00505
-0.0293501
0.927865
-0.0264036
0.856276
-0.0236546
0.789699
-0.0211126
0.72817
-0.0187711
0.670837
-0.0166344
0.618183
-0.0146832
0.568867
-0.0129305
0.523744
-0.0113655
0.481507
-0.00995617
0.443096
-0.00875183
0.406358
-0.0075514
0.37413
-0.00599482
0.335601
-0.0032516
0.287453
0.201012
-0.0928139
1.25081
0.0941054
-0.0913522
1.26198
-0.0897112
1.27336
-0.0878824
1.28566
-0.0858438
1.2989
-0.0835764
1.31289
-0.0810677
1.32784
-0.0782995
1.34371
-0.0752591
1.36071
-0.0719276
1.37893
-0.0682913
1.39856
-0.0643323
1.41977
-0.0600375
1.44276
-0.0553399
1.4824
-0.0507533
1.37177
-0.0463144
1.26882
-0.0420652
1.17306
-0.0380255
1.08399
-0.0342186
1.00124
-0.0306522
0.924299
-0.0273398
0.852963
-0.0242779
0.786637
-0.0214767
0.725369
-0.018922
0.668283
-0.0166211
0.615882
-0.0145515
0.566797
-0.0127287
0.521922
-0.0111351
0.479914
-0.00973745
0.441698
-0.00856645
0.405187
-0.00739296
0.372956
-0.00581929
0.334028
-0.00309152
0.284726
0.19792
-0.101522
1.24956
0.102769
-0.100096
1.26056
-0.0984814
1.27174
-0.0966714
1.28385
-0.0946418
1.29687
-0.0923729
1.31062
-0.0898548
1.32533
-0.0870658
1.34092
-0.0839967
1.35764
-0.0806298
1.37556
-0.0769505
1.39488
-0.0729412
1.41576
-0.0685896
1.43841
-0.0638339
1.47764
-0.0591927
1.36713
-0.0547099
1.26433
-0.0504257
1.16878
-0.0463568
1.07992
-0.0425285
0.99741
-0.0389336
0.920704
-0.0355828
0.849613
-0.0324504
0.783504
-0.0295379
0.722456
-0.0267925
0.665537
-0.0242295
0.613319
-0.0217643
0.564332
-0.0194393
0.519597
-0.0171784
0.477653
-0.0149913
0.439511
-0.0128817
0.403077
-0.0106027
0.370678
-0.00782551
0.33125
-0.00394347
0.280843
0.193977
-0.107165
1.24792
0.108808
-0.105328
1.25872
-0.103281
1.2697
-0.101021
1.28159
-0.0985216
1.29437
-0.0957606
1.30786
-0.0927257
1.32229
-0.0893968
1.33759
-0.0857615
1.354
-0.081799
1.3716
-0.0774945
1.39058
-0.0728279
1.4111
-0.0677815
1.43337
-0.0622782
1.47214
-0.0569176
1.36177
-0.0517398
1.25916
-0.0467883
1.16383
-0.0420862
1.07521
-0.0376636
0.992987
-0.0335304
0.916571
-0.0297015
0.845784
-0.0261778
0.779981
-0.0229649
0.719243
-0.0200576
0.66263
-0.0174525
0.610714
-0.015133
0.562013