/*--------------------------------*- C++ -*----------------------------------*\
| =========                 |                                                 |
| \\      /  F ield         | OpenFOAM: The Open Source CFD Toolbox           |
|  \\    /   O peration     | Version:  2.3.0                                 |
|   \\  /    A nd           | Web:      www.OpenFOAM.org                      |
|    \\/     M anipulation  |                                                 |
\*---------------------------------------------------------------------------*/
FoamFile
{
    version     2.0;
    format      ascii;
    class       volVectorField;
    location    "100";
    object      U;
}
// * * * * * * * * * * * * * * * * * * * * * * * * * * * * * * * * * * * * * //

dimensions      [0 1 -1 0 0 0 0];

internalField   nonuniform List<vector> 
14415
(
(96.2216 7.73715e-19 -3.58762)
(96.0585 -5.17038e-19 -4.06768)
(95.893 5.36751e-19 -4.56941)
(95.7419 -2.60986e-19 -5.08008)
(95.5704 3.30502e-19 -5.63739)
(95.3776 -1.98693e-18 -6.25074)
(95.1749 1.99059e-18 -6.92071)
(94.9621 -3.70697e-19 -7.6547)
(94.735 4.04922e-19 -8.46363)
(94.4922 -4.25766e-19 -9.35907)
(94.2339 -3.23618e-20 -10.354)
(93.9584 -8.44041e-19 -11.4656)
(93.6652 -8.46215e-19 -12.7132)
(93.3516 0 -14.1323)
(93.0314 0 -15.6799)
(92.7249 2.56244e-19 -17.278)
(92.4377 3.43658e-19 -18.9193)
(92.1735 -3.42034e-19 -20.5977)
(91.9361 -2.0387e-19 -22.3066)
(91.7289 1.86633e-19 -24.0393)
(91.5549 -5.72613e-19 -25.7873)
(91.4146 -2.25952e-20 -27.5465)
(91.3129 -4.31431e-20 -29.2989)
(91.2419 -2.14422e-19 -31.0638)
(91.222 -7.97854e-20 -32.7626)
(91.2033 0 -34.5636)
(91.2988 1.02994e-19 -36.0625)
(91.2632 -5.80926e-21 -38.0905)
(91.5935 8.92362e-20 -38.995)
(91.2778 5.42303e-21 -41.7993)
(92.2453 1.04354e-20 -41.2688)
(90.9118 1.2241e-20 -45.9633)
(93.942 -1.33051e-19 -42.5444)
(87.5536 -7.59784e-20 -49.7601)
(96.889 -6.87945e-19 -3.57459)
(96.7336 1.79995e-19 -4.0683)
(96.5769 0 -4.57832)
(96.4514 -2.19983e-19 -5.08285)
(96.3141 9.98685e-19 -5.63921)
(96.1573 -5.14633e-19 -6.25121)
(95.9884 -4.02905e-19 -6.91811)
(95.8101 -3.72107e-20 -7.64812)
(95.6205 1.35237e-19 -8.45181)
(95.4183 4.64601e-19 -9.34049)
(95.2034 -5.16486e-19 -10.327)
(94.9747 7.2875e-19 -11.4281)
(94.7317 2.42608e-19 -12.6624)
(94.4724 0 -14.0648)
(94.2083 -3.86916e-19 -15.5927)
(93.9574 3.93461e-19 -17.1685)
(93.7247 -4.58583e-19 -18.7849)
(93.5132 2.97784e-19 -20.4357)
(93.3263 -1.5857e-19 -22.1144)
(93.1671 -1.22403e-19 -23.8146)
(93.0383 3.17457e-20 -25.5274)
(92.9409 9.34085e-20 -27.2499)
(92.8788 5.66738e-20 -28.9621)
(92.8447 0 -30.6891)
(92.858 1.77158e-20 -32.3399)
(92.8706 1.11366e-19 -34.1107)
(92.9938 0 -35.5439)
(92.9858 2.48782e-22 -37.5715)
(93.3359 -2.72396e-22 -38.3694)
(93.059 0 -41.1936)
(94.0406 -3.83576e-20 -40.5999)
(92.7095 0 -45.1903)
(95.7839 0 -41.8812)
(89.5246 6.48714e-20 -48.7495)
(97.5103 2.21838e-20 -3.55966)
(97.3813 0 -4.05701)
(97.2481 7.91782e-20 -4.56799)
(97.1398 -4.67109e-19 -5.06633)
(97.0231 7.06601e-19 -5.62134)
(96.8943 -1.06392e-19 -6.23094)
(96.7564 -1.84493e-19 -6.89367)
(96.6101 1.32843e-19 -7.61902)
(96.4552 -3.69573e-19 -8.41693)
(96.291 3.30753e-21 -9.29808)
(96.117 -5.15205e-19 -10.2753)
(95.9328 -3.88347e-19 -11.3648)
(95.7383 4.347e-19 -12.5849)
(95.5321 -1.20979e-19 -13.9693)
(95.3236 2.49177e-20 -15.4759)
(95.1275 -1.69001e-19 -17.0279)
(94.9484 2.1158e-19 -18.6177)
(94.7892 0 -20.2394)
(94.6528 0 -21.8863)
(94.5422 1.21087e-19 -23.5522)
(94.4604 3.62715e-20 -25.2278)
(94.407 5.94644e-20 -26.9117)
(94.3882 1.39123e-20 -28.5804)
(94.3914 -7.64285e-20 -30.2676)
(94.45 -7.01349e-20 -31.8639)
(94.4905 1.85531e-20 -33.6035)
(94.6679 6.8949e-20 -34.955)
(94.6719 4.56644e-20 -36.9765)
(95.0746 -1.07082e-19 -37.66)
(94.8192 1.53833e-19 -40.4668)
(95.8303 -3.16046e-19 -39.8217)
(94.5257 1.87994e-19 -44.2965)
(97.5842 0 -41.1741)
(91.4727 0 -47.7217)
(98.1036 3.61249e-19 -3.51194)
(98.0001 -5.62528e-19 -4.01586)
(97.8973 1.8559e-19 -4.52706)
(97.8151 -1.45177e-19 -5.01927)
(97.7239 3.15175e-19 -5.57225)
(97.6252 6.5649e-20 -6.17865)
(97.5198 -6.30827e-20 -6.83633)
(97.4066 2.69366e-19 -7.55617)
(97.287 7.69374e-20 -8.34757)
(97.1617 -7.11047e-20 -9.22048)
(97.0301 1.8858e-19 -10.1875)
(96.892 3.89315e-19 -11.2646)
(96.7481 -3.94988e-19 -12.4694)
(96.5977 3.18637e-19 -13.8347)
(96.4482 0 -15.3186)
(96.3112 1.40918e-19 -16.8452)
(96.1911 1.5708e-19 -18.4066)
(96.0903 -1.11267e-20 -19.9971)
(96.0113 -1.22645e-19 -21.6098)
(95.9569 9.62826e-20 -23.239)
(95.9295 -1.5255e-19 -24.8745)
(95.9288 -4.23275e-21 -26.5169)
(95.96 0 -28.1394)
(96.0107 1.66989e-20 -29.7834)
(96.1111 -6.52665e-20 -31.3243)
(96.1933 6.03663e-20 -33.0294)
(96.4 -1.65021e-20 -34.3082)
(96.4413 0 -36.2966)
(96.874 0 -36.954)
(96.6537 -3.45045e-20 -39.6798)
(97.6834 -2.21021e-19 -39.0003)
(96.3715 -3.47326e-20 -43.3803)
(99.4798 2.7051e-19 -40.2381)
(93.401 0 -46.6941)
(98.6867 -4.7733e-20 -3.42722)
(98.6034 -1.18887e-19 -3.93012)
(98.5251 1.733e-19 -4.44304)
(98.4649 -2.43468e-19 -4.92997)
(98.3948 2.47554e-19 -5.48038)
(98.3223 -8.24877e-20 -6.08287)
(98.2479 1.20609e-19 -6.73466)
(98.1675 0 -7.44781)
(98.0823 -7.10823e-20 -8.23152)
(97.9943 1.14946e-19 -9.09511)
(97.9037 -3.0881e-19 -10.0508)
(97.8105 4.0389e-20 -11.1142)
(97.7159 0 -12.3024)
(97.6203 0 -13.6472)
(97.529 0 -15.1069)
(97.4502 0 -16.6066)
(97.3882 -4.32196e-20 -18.1383)
(97.3453 3.72806e-20 -19.6961)
(97.3235 -7.25187e-20 -21.2733)
(97.3251 2.98644e-20 -22.8642)
(97.3527 2.40693e-20 -24.4583)
(97.4049 4.14564e-21 -26.0579)
(97.4893 3.6055e-20 -27.6317)
(97.5869 -5.87162e-20 -29.2323)
(97.7438 -1.23126e-19 -30.7112)
(97.8616 3.04086e-19 -32.3833)
(98.1314 -4.12687e-19 -33.5804)
(98.1917 2.4911e-19 -35.5397)
(98.6963 0 -36.1104)
(98.4725 3.17961e-20 -38.8134)
(99.5754 -5.18824e-19 -38.0328)
(98.2357 6.98027e-19 -42.3522)
(101.36 9.7579e-20 -39.2292)
(95.3757 -1.0746e-18 -45.5519)
(99.2476 -8.02219e-20 -3.30973)
(99.1851 8.41938e-20 -3.8148)
(99.1366 -7.93615e-20 -4.32437)
(99.1041 0 -4.80432)
(99.059 0 -5.35052)
(99.0132 -6.60884e-20 -5.94768)
(98.9696 2.89536e-20 -6.5925)
(98.923 -4.95271e-20 -7.29761)
(98.8739 4.98709e-20 -8.07203)
(98.8248 0 -8.92463)
(98.777 0 -9.8672)
(98.7307 0 -10.915)
(98.6879 0 -12.0842)
(98.6498 0 -13.4058)
(98.6201 0 -14.8382)
(98.6037 -4.42933e-21 -16.3073)
(98.6042 0 -17.8053)
(98.6236 1.65141e-20 -19.3263)
(98.6637 0 -20.8632)
(98.7262 7.89101e-20 -22.411)
(98.8136 1.63936e-22 -23.958)
(98.924 -1.52554e-19 -25.5092)
(99.0646 1.46811e-19 -27.0288)
(99.2162 -2.73587e-19 -28.5791)
(99.4211 1.63885e-19 -29.9949)
(99.5916 2.15474e-19 -31.6202)
(99.8922 -2.72633e-19 -32.7494)
(100.015 3.643e-19 -34.6574)
(100.516 -4.26859e-19 -35.1596)
(100.375 -3.14458e-20 -37.8021)
(101.427 -7.45099e-19 -36.9818)
(100.202 7.39311e-19 -41.1764)
(103.248 -2.16046e-20 -38.0891)
(97.3704 -1.23589e-18 -44.3468)
(99.7884 1.75216e-21 -3.16133)
(99.7428 0 -3.67149)
(99.7184 -7.18318e-21 -4.17353)
(99.7089 -1.31625e-21 -4.64746)
(99.6875 1.37564e-21 -5.18849)
(99.6676 3.60058e-21 -5.77893)
(99.6529 0 -6.41585)
(99.6386 0 -7.11196)
(99.6243 0 -7.87591)
(99.6128 5.36193e-21 -8.71635)
(99.6061 -2.60776e-20 -9.64458)
(99.6052 2.0066e-20 -10.6753)
(99.6125 0 -11.8242)
(99.6305 0 -13.1211)
(99.6602 0 -14.5245)
(99.7037 -4.52258e-20 -15.9618)
(99.7642 6.50151e-20 -17.4248)
(99.8434 -1.22842e-20 -18.9077)
(99.9428 1.23562e-19 -20.4033)
(100.064 2.76473e-20 -21.9069)
(100.208 -1.58949e-19 -23.4059)
(100.374 2.42021e-20 -24.9082)
(100.569 -4.29997e-21 -26.3715)
(100.77 2.13456e-19 -27.8726)
(101.034 4.9974e-20 -29.2176)
(101.243 6.9186e-20 -30.8003)
(101.609 -3.56278e-19 -31.84)
(101.753 2.56474e-20 -33.7194)
(102.333 0 -34.1026)
(102.185 0 -36.7353)
(103.338 0 -35.7843)
(102.067 0 -39.9564)
(105.204 -3.09091e-20 -36.7735)
(99.3384 1.39176e-18 -43.0504)
(100.308 1.14634e-20 -2.98105)
(100.284 -9.21732e-20 -3.49602)
(100.288 0 -3.98655)
(100.305 0 -4.45325)
(100.31 5.52399e-20 -4.98716)
(100.318 -1.12041e-19 -5.56886)
(100.333 -2.53169e-21 -6.19597)
(100.352 1.24758e-19 -6.88098)
(100.374 6.88252e-21 -7.63201)
(100.403 1.26736e-21 -8.45751)
(100.439 -1.57088e-19 -9.36839)
(100.487 8.59758e-20 -10.3787)
(100.547 0 -11.5032)
(100.625 2.38059e-21 -12.7706)
(100.719 2.93122e-21 -14.1396)
(100.828 0 -15.5389)
(100.954 -1.38178e-19 -16.9602)
(101.099 1.38841e-19 -18.3979)
(101.264 -1.98958e-19 -19.8445)
(101.45 2.10862e-19 -21.2958)
(101.658 3.00433e-19 -22.7383)
(101.886 -6.99674e-19 -24.1825)
(102.14 3.91024e-19 -25.5816)
(102.399 5.48669e-19 -27.0231)
(102.71 -6.15739e-19 -28.2977)
(102.978 -3.98755e-19 -29.8187)
(103.368 -4.23019e-20 -30.7891)
(103.586 5.20382e-19 -32.5997)
(104.145 -2.69682e-21 -32.929)
(104.106 0 -35.4596)
(105.168 3.69581e-21 -34.5226)
(104.064 2.24088e-21 -38.5088)
(107.062 1.26008e-18 -35.3908)
(101.304 -1.4748e-18 -41.6154)
(100.803 0 -2.77581)
(100.794 9.84168e-20 -3.29718)
(100.821 -9.92041e-20 -3.77605)
(100.862 0 -4.23584)
(100.893 -1.61081e-20 -4.7618)
(100.927 0 -5.33359)
(100.971 -1.30038e-21 -5.94991)
(101.021 1.19394e-19 -6.62284)
(101.079 6.61746e-21 -7.35984)
(101.146 -1.28228e-19 -8.16918)
(101.224 -2.16516e-20 -9.06138)
(101.317 2.3455e-20 -10.0498)
(101.428 -1.80749e-19 -11.1485)
(101.563 2.05001e-19 -12.3849)
(101.718 -3.66136e-20 -13.7182)
(101.888 -2.03172e-20 -15.0783)
(102.076 2.21396e-21 -16.457)
(102.282 -3.22966e-20 -17.8488)
(102.508 3.35612e-21 -19.2457)
(102.754 2.05924e-21 -20.6446)
(103.021 -2.57296e-20 -22.0302)
(103.304 3.06901e-21 -23.4171)
(103.617 0 -24.7491)
(103.925 6.71621e-19 -26.1336)
(104.299 -7.32632e-19 -27.3251)
(104.603 -9.7849e-19 -28.7967)
(105.061 1.07056e-18 -29.6638)
(105.298 2.29848e-21 -31.441)
(105.937 7.49875e-19 -31.6431)
(105.888 5.38878e-20 -34.1569)
(107.052 -9.52589e-19 -33.0795)
(105.9 1.76521e-20 -37.0626)
(109 0 -33.7819)
(103.22 3.11952e-21 -40.1139)
(101.277 7.89369e-20 -2.54478)
(101.291 -1.29812e-20 -3.06367)
(101.343 1.34384e-20 -3.52871)
(101.409 0 -3.9799)
(101.467 -1.30509e-19 -4.49562)
(101.53 3.54304e-20 -5.05529)
(101.602 1.53674e-19 -5.65846)
(101.686 0 -6.31662)
(101.781 0 -7.03659)
(101.887 5.4117e-20 -7.82643)
(102.01 2.15304e-20 -8.69616)
(102.152 -2.33e-20 -9.65841)
(102.317 -3.1638e-19 -10.7264)
(102.513 2.19056e-19 -11.926)
(102.733 3.33849e-20 -13.2167)
(102.97 7.19149e-20 -14.5303)
(103.225 -2.33273e-19 -15.8586)
(103.498 3.71646e-21 -17.1963)
(103.791 3.03622e-19 -18.5351)
(104.101 0 -19.8727)
(104.432 -4.48675e-19 -21.1926)
(104.777 4.43345e-19 -22.5129)
(105.147 0 -23.7729)
(105.512 0 -25.0883)
(105.929 9.27917e-19 -26.2049)
(106.295 -9.13082e-19 -27.6011)
(106.768 -3.55755e-20 -28.3993)
(107.086 -4.77833e-20 -30.0851)
(107.694 1.7494e-18 -30.2464)
(107.764 -1.89482e-18 -32.6263)
(108.828 -2.33521e-18 -31.5755)
(107.847 2.53983e-18 -35.3726)
(110.812 0 -32.1049)
(105.075 3.6504e-18 -38.4787)
(101.725 -1.26452e-19 -2.29469)
(101.755 1.62975e-19 -2.81821)
(101.829 0 -3.26734)
(101.918 1.33031e-19 -3.70962)
(102.002 -4.32446e-20 -4.21444)
(102.092 -2.35018e-19 -4.76083)
(102.194 -2.69803e-19 -5.34973)
(102.309 -1.20553e-20 -5.99205)
(102.438 2.24779e-19 -6.69387)
(102.583 -5.43621e-20 -7.46294)
(102.748 0 -8.30884)
(102.936 -7.77483e-20 -9.24343)
(103.152 6.74542e-20 -10.2791)
(103.405 0 -11.4402)
(103.687 0 -12.6869)
(103.986 -5.16316e-20 -13.9528)
(104.303 0 -15.2297)
(104.638 -3.38624e-19 -16.5125)
(104.991 4.71914e-19 -17.7925)
(105.361 0 -19.0687)
(105.75 -5.58389e-19 -20.3222)
(106.15 6.80773e-19 -21.5767)
(106.578 0 -22.7593)
(106.992 9.03838e-19 -24.0101)
(107.468 -9.86349e-19 -25.0336)
(107.868 1.24067e-18 -26.3759)
(108.408 -1.43705e-18 -27.0581)
(108.734 4.76554e-20 -28.7108)
(109.425 1.92073e-18 -28.7243)
(109.469 -4.26179e-18 -31.1045)
(110.645 2.41499e-18 -29.8534)
(109.593 -3.037e-18 -33.7408)
(112.698 3.139e-18 -30.1414)
(106.817 3.94006e-18 -36.8013)
(102.153 -1.97265e-19 -2.02155)
(102.205 3.4587e-19 -2.53845)
(102.3 -2.02223e-19 -2.9705)
(102.413 4.92687e-20 -3.40168)
(102.525 1.74687e-19 -3.89243)
(102.643 -2.44313e-19 -4.4226)
(102.775 3.01181e-19 -4.9939)
(102.922 1.43307e-19 -5.61648)
(103.088 0 -6.29579)
(103.273 -3.05823e-19 -7.03921)
(103.481 -2.0833e-20 -7.85571)
(103.718 5.26596e-20 -8.75629)
(103.989 5.44737e-19 -9.7523)
(104.302 0 -10.8664)
(104.648 -3.62084e-19 -12.0593)
(105.013 5.40244e-19 -13.2672)
(105.395 -3.04968e-19 -14.4819)
(105.795 1.89336e-19 -15.6984)
(106.212 -5.22977e-19 -16.9084)
(106.644 0 -18.1116)
(107.093 0 -19.2882)
(107.55 7.28296e-19 -20.4655)
(108.029 -8.99484e-19 -21.5673)
(108.496 0 -22.7384)
(109.008 1.13967e-18 -23.6824)
(109.468 -1.4854e-18 -24.9367)
(110.014 -9.17693e-21 -25.5563)
(110.419 0 -27.0971)
(111.072 0 -27.0888)
(111.219 7.96174e-20 -29.3126)
(112.324 2.55265e-18 -28.089)
(111.385 -2.8527e-18 -31.8151)
(114.4 3.43018e-18 -28.1905)
(108.505 -8.25406e-18 -34.8894)
(102.551 -1.23474e-19 -1.73317)
(102.623 5.44e-20 -2.244)
(102.737 0 -2.65796)
(102.873 2.62776e-19 -3.0769)
(103.01 -2.43348e-19 -3.55255)
(103.156 4.39644e-19 -4.06513)
(103.316 -2.88727e-19 -4.6175)
(103.494 -4.65121e-19 -5.21901)
(103.694 4.96434e-19 -5.87444)
(103.917 0 -6.59073)
(104.167 -3.83262e-19 -7.37618)
(104.448 5.93326e-19 -8.24098)
(104.769 2.4403e-19 -9.19541)
(105.139 -6.75489e-19 -10.2604)
(105.545 -1.59352e-19 -11.3976)
(105.969 0 -12.5455)
(106.411 0 -13.6959)
(106.87 1.99746e-19 -14.8447)
(107.345 7.83996e-19 -15.982)
(107.833 -5.64236e-19 -17.1105)
(108.337 0 -18.2063)
(108.845 0 -19.3046)
(109.377 1.08453e-19 -20.3167)
(109.888 1.23605e-18 -21.4104)
(110.45 -1.19441e-18 -22.253)
(110.942 1.68821e-19 -23.4406)
(111.539 -1.5752e-18 -23.9449)
(111.959 3.74462e-18 -25.4329)
(112.662 -2.09012e-18 -25.3063)
(112.814 1.13962e-20 -27.4751)
(113.957 8.31666e-20 -26.1572)
(113.055 3.27369e-18 -29.8207)
(116.039 -3.50579e-18 -26.0563)
(110.088 -4.16983e-18 -32.9279)
(102.926 2.64734e-19 -1.4274)
(103.019 2.7583e-19 -1.93105)
(103.156 -5.6394e-19 -2.32376)
(103.313 2.88034e-19 -2.72811)
(103.476 3.34786e-19 -3.18656)
(103.651 -2.9625e-19 -3.6788)
(103.841 3.49183e-19 -4.20921)
(104.051 1.95979e-20 -4.7862)
(104.285 -5.43986e-19 -5.41389)
(104.547 2.11304e-19 -6.09876)
(104.84 0 -6.84841)
(105.169 -6.78821e-19 -7.67203)
(105.541 4.65565e-19 -8.57891)
(105.968 1.0468e-18 -9.58807)
(106.436 -6.14541e-19 -10.6623)
(106.921 -3.6622e-19 -11.7429)
(107.423 3.97064e-19 -12.8224)
(107.941 0 -13.8962)
(108.472 -5.57902e-19 -14.956)
(109.015 -6.74014e-19 -16.0039)
(109.569 7.32778e-19 -17.0167)
(110.125 -9.04692e-19 -18.0314)
(110.7 1.2493e-18 -18.9565)
(111.254 1.21772e-18 -19.9641)
(111.845 -2.70043e-18 -20.7222)
(112.385 2.90494e-18 -21.8115)
(112.983 -3.56122e-18 -22.2513)
(113.472 2.1275e-18 -23.6126)
(114.141 0 -23.4524)
(114.372 1.08816e-20 -25.4817)
(115.477 -3.24848e-18 -24.1091)
(114.625 6.89247e-18 -27.7536)
(117.625 -3.72833e-18 -23.7005)
(111.464 -2.87377e-19 -30.9232)
(103.278 -1.40678e-19 -1.10788)
(103.389 0 -1.60248)
(103.544 0 -1.97401)
(103.723 0 -2.36202)
(103.911 -3.44203e-19 -2.8015)
(104.112 1.84296e-20 -3.27178)
(104.33 0 -3.77845)
(104.57 0 -4.32902)
(104.837 -4.33373e-19 -4.92693)
(105.135 4.46935e-19 -5.57814)
(105.468 -4.56607e-19 -6.28946)
(105.84 0 -7.06918)
(106.261 5.54237e-19 -7.92537)
(106.741 -8.14097e-19 -8.87516)
(107.265 6.59831e-19 -9.88248)
(107.806 -3.98539e-19 -10.8921)
(108.363 2.03507e-18 -11.896)
(108.934 -2.09163e-18 -12.8916)
(109.519 2.07061e-19 -13.8676)
(110.111 1.35833e-18 -14.8314)
(110.714 0 -15.7532)
(111.313 -2.41807e-19 -16.6807)
(111.932 -2.5658e-19 -17.508)
(112.521 -1.09411e-18 -18.4317)
(113.151 1.37604e-18 -19.0807)
(113.712 -1.37702e-20 -20.1033)
(114.357 -1.88248e-18 -20.4099)
(114.833 2.20121e-18 -21.7444)
(115.57 0 -21.4084)
(115.742 -1.65235e-19 -23.4733)
(116.95 3.80833e-19 -21.8607)
(116.022 0 -25.6403)
(119.079 3.84406e-18 -21.2493)
(112.682 -4.67633e-18 -28.7476)
(103.604 -4.8197e-19 -0.775147)
(103.737 0 -1.2518)
(103.911 0 -1.60055)
(104.111 0 -1.96956)
(104.324 1.81762e-19 -2.38645)
(104.552 1.14766e-20 -2.83102)
(104.799 -4.07899e-19 -3.30963)
(105.069 0 -3.82879)
(105.37 -4.77727e-19 -4.39139)
(105.705 2.03621e-19 -5.00275)
(106.078 -3.31419e-20 -5.66879)
(106.495 8.19069e-19 -6.39666)
(106.964 6.08003e-19 -7.19332)
(107.498 -2.75203e-19 -8.07367)
(108.077 -1.04363e-18 -9.00332)
(108.673 -4.02116e-19 -9.93056)
(109.284 -1.24706e-18 -10.8485)
(109.907 -7.56147e-20 -11.754)
(110.538 1.2699e-18 -12.6386)
(111.176 -3.90729e-19 -13.5076)
(111.819 -2.24583e-19 -14.335)
(112.457 2.03905e-18 -15.1671)
(113.106 -2.23293e-18 -15.9005)
(113.728 1.02765e-18 -16.7281)
(114.373 -1.26975e-18 -17.2958)
(114.974 2.06569e-19 -18.2045)
(115.599 -2.48005e-19 -18.4771)
(116.146 -5.50134e-19 -19.6373)
(116.809 -2.54134e-18 -19.3571)
(117.087 2.79169e-18 -21.1705)
(118.192 -1.93559e-19 -19.6781)
(117.404 -2.34125e-19 -23.2182)
(120.316 1.22188e-19 -18.8054)
(113.708 4.9102e-18 -26.457)
(103.902 7.17932e-19 -0.434866)
(104.055 -3.6046e-19 -0.898393)
(104.247 0 -1.22108)
(104.466 -2.02544e-19 -1.57043)
(104.701 8.35942e-19 -1.96407)
(104.955 2.32824e-19 -2.38208)
(105.228 -9.1879e-19 -2.83205)
(105.527 4.69401e-19 -3.3193)
(105.858 0 -3.84611)
(106.225 -2.77814e-19 -4.41725)
(106.634 2.93819e-19 -5.03774)
(107.09 6.45439e-19 -5.71381)
(107.602 3.76456e-19 -6.45112)
(108.182 -6.77426e-19 -7.26261)
(108.809 -8.17526e-19 -8.11564)
(109.451 4.11242e-19 -8.96263)
(110.106 0 -9.79621)
(110.77 9.51794e-19 -10.6156)
(111.443 -1.37474e-18 -11.4082)
(112.116 -2.64083e-20 -12.1876)
(112.795 2.26514e-19 -12.9166)
(113.461 -8.44561e-19 -13.6573)
(114.14 1.20104e-18 -14.2868)
(114.784 3.60317e-19 -15.0254)
(115.455 -1.83366e-18 -15.4792)
(116.065 -7.49914e-20 -16.3179)
(116.726 2.28249e-18 -16.4406)
(117.247 5.86316e-19 -17.5995)
(117.983 0 -17.0743)
(118.18 0 -19.0233)
(119.398 0 -17.1366)
(118.489 2.35903e-19 -21.0093)
(121.548 0 -16.0246)
(114.413 1.55641e-19 -24.1837)
(104.18 9.06355e-21 -0.0823186)
(104.353 -7.98421e-19 -0.525415)
(104.561 8.21625e-19 -0.821393)
(104.8 -8.47125e-19 -1.14749)
(105.058 2.31137e-19 -1.51357)
(105.337 0 -1.90053)
(105.637 -5.06576e-19 -2.31658)
(105.964 -2.91669e-20 -2.76589)
(106.326 1.0907e-18 -3.25022)
(106.727 1.54428e-20 -3.77363)
(107.172 -6.05385e-19 -4.34016)
(107.667 -3.09796e-19 -4.95483)
(108.221 -3.28967e-19 -5.62221)
(108.847 3.47309e-19 -6.35268)
(109.52 0 -7.11622)
(110.208 -5.36538e-19 -7.86898)
(110.905 1.08581e-18 -8.60588)
(111.609 -1.92128e-20 -9.32432)
(112.316 0 -10.017)
(113.022 4.13167e-19 -10.6916)
(113.726 0 -11.3205)
(114.417 -2.00041e-18 -11.9577)
(115.112 2.47821e-18 -12.4895)
(115.774 -3.51162e-19 -13.1287)
(116.448 0 -13.4965)
(117.075 0 -14.2267)
(117.716 0 -14.3074)
(118.271 -2.89148e-19 -15.3035)
(118.949 0 -14.8314)
(119.212 0 -16.5379)
(120.337 0 -14.7684)
(119.526 0 -18.4252)
(122.547 8.51685e-18 -13.4109)
(114.819 1.75299e-19 -21.7024)
(104.431 1.97329e-19 0.275521)
(104.623 2.04427e-19 -0.144631)
(104.847 0 -0.412664)
(105.103 -2.48719e-19 -0.714807)
(105.382 1.21136e-21 -1.05258)
(105.683 1.33863e-20 -1.40795)
(106.007 -5.29201e-19 -1.78974)
(106.359 2.86147e-19 -2.2009)
(106.747 -5.85805e-19 -2.64267)
(107.176 6.35354e-19 -3.11849)
(107.653 3.36606e-19 -3.63144)
(108.181 -3.31113e-19 -4.1856)
(108.77 -3.53739e-19 -4.7842)
(109.432 -3.95421e-19 -5.43599)
(110.143 4.64347e-19 -6.11246)
(110.865 2.9073e-20 -6.77608)
(111.594 3.06632e-19 -7.41903)
(112.326 1.04868e-18 -8.04523)
(113.059 4.54344e-20 -8.63841)
(113.785 -8.87181e-19 -9.22109)
(114.509 -2.6549e-19 -9.7465)
(115.212 9.28554e-19 -10.2939)
(115.92 -2.71383e-18 -10.7213)
(116.589 1.9025e-18 -11.2726)
(117.268 1.78478e-18 -11.5357)
(117.895 -3.96523e-18 -12.1905)
(118.542 2.20033e-18 -12.1429)
(119.077 0 -13.1302)
(119.783 -3.05666e-18 -12.4242)
(119.983 3.15303e-18 -14.2943)
(121.171 0 -12.1035)
(120.277 -2.52561e-19 -16.1229)
(123.383 -4.34837e-18 -10.5497)
(114.872 5.13163e-18 -19.2865)
(104.658 -2.10549e-19 0.63949)
(104.867 -2.19735e-19 0.242628)
(105.105 0 0.00393847)
(105.376 2.38237e-19 -0.272961)
(105.673 2.48942e-19 -0.580457)
(105.995 2.74788e-19 -0.902152)
(106.34 2.5447e-22 -1.24731)
(106.714 -3.02884e-19 -1.61766)
(107.126 3.03136e-19 -2.01403)
(107.58 -9.69151e-19 -2.43915)
(108.083 6.83609e-19 -2.89529)
(108.639 3.53417e-19 -3.38539)
(109.257 0 -3.91182)
(109.95 3.93306e-19 -4.48086)
(110.69 0 -5.0676)
(111.439 -5.26203e-19 -5.63766)
(112.191 -3.02967e-19 -6.18717)
(112.944 1.09387e-18 -6.71536)
(113.692 -1.20443e-18 -7.21532)
(114.432 4.7039e-19 -7.69797)
(115.162 -8.22743e-19 -8.13352)
(115.872 1.17088e-18 -8.58372)
(116.579 3.42381e-19 -8.92464)
(117.248 -3.76992e-19 -9.38883)
(117.92 2.1744e-19 -9.56823)
(118.542 2.22012e-18 -10.147)
(119.176 -2.14635e-18 -10.0293)
(119.704 2.48709e-18 -10.932)
(120.388 -2.53769e-18 -10.1996)
(120.599 3.13052e-18 -11.9506)
(121.731 -6.89289e-18 -9.76259)
(120.879 4.13051e-18 -13.7209)
(123.817 0 -7.99605)
(114.582 5.07575e-18 -16.8053)
(104.862 2.12379e-19 1.00731)
(105.086 0 0.634902)
(105.336 -1.57477e-21 0.425112)
(105.62 5.15044e-19 0.172932)
(105.932 2.77335e-19 -0.104764)
(106.27 -2.75597e-19 -0.393792)
(106.632 3.05071e-19 -0.703648)
(107.025 -6.20234e-19 -1.03483)
(107.455 3.2035e-19 -1.38786)
(107.928 0 -1.76492)
(108.451 1.41477e-20 -2.16743)
(109.028 3.96301e-19 -2.59759)
(109.666 -3.92167e-19 -3.05665)
(110.38 -4.40956e-19 -3.54965)
(111.139 9.86017e-19 -4.0533)
(111.904 -5.6137e-19 -4.53985)
(112.669 6.3505e-19 -5.00222)
(113.43 1.07919e-20 -5.44748)
(114.186 -1.14981e-20 -5.85731)
(114.926 -4.832e-19 -6.26221)
(115.659 -1.14229e-18 -6.60573)
(116.363 1.24025e-18 -6.98517)
(117.067 -3.54861e-19 -7.23711)
(117.727 -1.65396e-18 -7.63214)
(118.388 1.80179e-18 -7.73498)
(119.003 -2.55615e-19 -8.241)
(119.619 -2.34865e-18 -8.05409)
(120.137 2.23409e-18 -8.90804)
(120.805 1.81266e-19 -8.06082)
(120.996 0 -9.86222)
(122.123 3.60581e-18 -7.44726)
(121.285 7.37456e-20 -11.5831)
(123.973 8.99949e-20 -5.55115)
(114.031 -4.9994e-18 -14.5073)
(105.043 3.08573e-21 1.3783)
(105.28 2.53985e-19 1.02923)
(105.539 -2.4111e-19 0.847981)
(105.834 -2.51909e-19 0.619592)
(106.159 -5.6313e-19 0.371311)
(106.51 -3.00772e-19 0.114367)
(106.887 -3.15048e-19 -0.160884)
(107.294 3.19279e-19 -0.453688)
(107.739 0 -0.764457)
(108.227 3.64295e-19 -1.09478)
(108.765 4.0195e-19 -1.44546)
(109.357 -7.89178e-19 -1.81788)
(110.011 -4.34139e-19 -2.21273)
(110.739 1.32447e-18 -2.63319)
(111.51 -4.91351e-19 -3.05948)
(112.284 -5.7563e-19 -3.46646)
(113.055 0 -3.85093)
(113.819 -3.78619e-19 -4.21485)
(114.573 -4.65665e-19 -4.54981)
(115.312 9.72329e-19 -4.8721)
(116.037 0 -5.14635)
(116.736 1.30579e-18 -5.44488)
(117.426 -1.41657e-18 -5.62958)
(118.076 0 -5.95662)
(118.722 -2.27272e-19 -5.98055)
(119.319 -1.30118e-18 -6.45274)
(119.922 1.13468e-18 -6.15454)
(120.417 -9.84491e-19 -7.02784)
(121.085 1.42006e-18 -6.02974)
(121.257 -1.42615e-18 -7.91232)
(122.345 1.76218e-18 -5.28557)
(121.516 1.25546e-19 -9.58543)
(123.939 -1.32839e-19 -3.32896)
(113.155 2.6249e-18 -12.3191)
(105.202 2.52809e-19 1.75139)
(105.451 1.32367e-19 1.42689)
(105.718 6.80787e-21 1.27444)
(106.021 7.07989e-21 1.07016)
(106.356 4.44349e-19 0.851663)
(106.719 7.72811e-19 0.6266)
(107.107 1.60272e-19 0.385809)
(107.525 -3.41714e-19 0.131005)
(107.981 -1.76033e-19 -0.138106)
(108.48 -5.46211e-19 -0.422622)
(109.029 -3.84475e-19 -0.722709)
(109.631 4.04484e-19 -1.03921)
(110.294 6.59376e-19 -1.37193)
(111.029 -8.96286e-19 -1.72322)
(111.806 -2.72246e-19 -2.07489)
(112.582 -2.93736e-19 -2.40814)
(113.352 -3.39783e-19 -2.71645)
(114.113 -1.23195e-20 -3.00972)
(114.861 -8.96897e-21 -3.26729)
(115.59 4.91601e-19 -3.52721)
(116.304 0 -3.72235)
(116.987 6.54691e-19 -3.97024)
(117.664 -1.44475e-18 -4.07816)
(118.296 -2.75613e-20 -4.36093)
(118.924 -2.88652e-20 -4.32154)
(119.504 1.25639e-18 -4.7458)
(120.086 0 -4.40242)
(120.564 1.58515e-19 -5.23654)
(121.208 -3.51899e-19 -4.16161)
(121.373 -1.98112e-19 -6.09932)
(122.453 2.16988e-19 -3.2563)
(121.583 -6.93784e-22 -7.7532)
(123.769 1.32136e-19 -1.26982)
(112.109 -1.62586e-19 -10.2791)
(105.339 -2.53622e-19 2.12466)
(105.596 1.36529e-19 1.82388)
(105.869 -4.17378e-19 1.69903)
(106.179 -1.49137e-19 1.51731)
(106.522 -1.51701e-19 1.3277)
(106.893 -3.13703e-19 1.13325)
(107.289 0 0.925413)
(107.716 5.23295e-19 0.70697)
(108.179 1.83177e-19 0.477503)
(108.686 0 0.236464)
(109.241 1.98609e-19 -0.0158645)
(109.849 2.05124e-19 -0.279741)
(110.516 -6.69592e-19 -0.55461)
(111.254 6.91094e-19 -0.841418)
(112.031 8.05048e-19 -1.1253)
(112.804 3.105e-19 -1.38995)
(113.568 -7.09699e-19 -1.6322)
(114.32 7.89274e-19 -1.85741)
(115.057 -4.53786e-19 -2.05421)
(115.774 -2.59553e-19 -2.24602)
(116.472 0 -2.38925)
(117.141 -3.3149e-19 -2.56884)
(117.798 3.73097e-19 -2.63121)
(118.414 0 -2.85488)
(119.022 -4.73299e-19 -2.76105)
(119.584 -1.42629e-20 -3.15714)
(120.147 1.14943e-18 -2.72477)
(120.607 -1.27638e-18 -3.58845)
(121.219 8.73567e-19 -2.37905)
(121.363 0 -4.37131)
(122.407 6.54928e-19 -1.4289)
(121.539 -1.19958e-18 -5.88791)
(123.39 9.16436e-19 0.539376)
(110.937 -2.40331e-18 -8.40256)
(105.452 0 2.4967)
(105.718 -1.40187e-19 2.2253)
(105.996 1.33504e-19 2.12494)
(106.31 1.47831e-19 1.96661)
(106.659 4.65582e-19 1.80523)
(107.035 1.66909e-19 1.64032)
(107.438 -1.65524e-19 1.46455)
(107.87 0 1.28115)
(108.339 -1.83457e-19 1.08973)
(108.849 -3.81277e-19 0.890167)
(109.408 -6.03082e-19 0.683175)
(110.018 2.20819e-19 0.468863)
(110.685 -2.17872e-19 0.248416)
(111.421 1.2628e-19 0.0213867)
(112.193 8.13923e-21 -0.198849)
(112.959 3.16937e-19 -0.401593)
(113.714 1.80605e-19 -0.580396)
(114.454 -2.04472e-19 -0.748003)
(115.177 -2.31494e-19 -0.880759)
(115.878 -2.61942e-19 -1.02419)
(116.559 -1.13951e-20 -1.09939)
(117.209 6.43468e-19 -1.24581)
(117.848 -7.28124e-19 -1.23439)
(118.444 0 -1.43883)
(119.031 0 -1.27487)
(119.574 0 -1.65072)
(120.116 0 -1.17054)
(120.557 -1.36038e-21 -1.9982)
(121.135 0 -0.763134)
(121.257 0 -2.7359)
(122.292 0 0.273323)
(121.433 1.2227e-19 -4.22387)
(122.925 6.50384e-19 2.18617)
(109.543 -6.36427e-19 -6.52667)
(105.544 -3.40543e-19 2.86839)
(105.816 -2.84137e-19 2.62122)
(106.097 3.67454e-19 2.54726)
(106.414 8.69338e-21 2.41081)
(106.767 -7.18093e-19 2.27756)
(107.148 8.57912e-20 2.14168)
(107.554 4.60308e-21 1.99726)
(107.989 4.9168e-21 1.84812)
(108.46 6.68798e-19 1.69372)
(108.972 3.95754e-19 1.53441)
(109.53 0 1.37118)
(110.138 -4.38182e-19 1.20458)
(110.802 0 1.03603)
(111.532 -5.94072e-19 0.866044)
(112.295 2.02096e-19 0.705074)
(113.05 -4.65289e-19 0.5613)
(113.791 -2.66864e-19 0.43862)
(114.516 -1.0295e-19 0.327825)
(115.221 -4.75606e-21 0.24496)
(115.904 3.82822e-19 0.157204)
(116.565 -2.88438e-19 0.121279)
(117.195 -8.27009e-20 0.0320169)
(117.812 4.54666e-19 0.0707401)
(118.387 2.02921e-19 -0.0799536)
(118.954 0 0.115377)
(119.477 6.42496e-20 -0.240612)
(119.996 -6.97713e-20 0.32517)
(120.422 -1.18553e-19 -0.578825)
(120.979 -2.3775e-19 0.858943)
(121.083 2.40785e-20 -1.33313)
(122.088 2.68734e-20 1.97528)
(121.237 -2.94179e-20 -2.70066)
(122.351 -2.52786e-19 3.67491)
(108.109 1.57253e-19 -4.73491)
(105.618 2.04888e-19 3.2383)
(105.894 3.56284e-19 3.01628)
(106.177 0 2.96706)
(106.495 -6.26158e-19 2.8512)
(106.85 6.94885e-19 2.74508)
(107.233 3.01018e-19 2.63647)
(107.641 0 2.52175)
(108.077 -4.76997e-20 2.40484)
(108.547 5.08787e-20 2.28506)
(109.058 2.60585e-20 2.16322)
(109.613 -2.57492e-20 2.04054)
(110.217 -2.83709e-21 1.91782)
(110.875 0 1.79692)
(111.595 -4.83155e-22 1.67859)
(112.346 5.2183e-22 1.57192)
(113.086 -2.01594e-20 1.48014)
(113.812 2.17958e-20 1.41025)
(114.519 4.0477e-19 1.34632)
(115.205 7.99889e-19 1.31589)
(115.868 2.5299e-19 1.26545)
(116.508 4.35423e-19 1.28637)
(117.117 3.25452e-19 1.21779)
(117.711 3.62808e-19 1.32372)
(118.267 -2.04131e-19 1.1742)
(118.808 0 1.44389)
(119.314 -2.53304e-19 1.07922)
(119.809 2.68386e-19 1.70816)
(120.215 3.04034e-19 0.811026)
(120.755 1.70373e-19 2.27868)
(120.86 0 0.125747)
(121.821 -8.31572e-19 3.37941)
(120.955 1.83768e-18 -1.10345)
(121.644 -1.85441e-18 4.93727)
(106.589 2.34254e-18 -3.05601)
(105.671 -1.65119e-21 3.60419)
(105.952 1.71259e-20 3.4074)
(106.235 -2.69386e-19 3.38221)
(106.554 3.18123e-19 3.28666)
(106.909 -3.29448e-19 3.20717)
(107.292 -3.54455e-19 3.12499)
(107.699 -1.0993e-20 3.03915)
(108.135 -1.50901e-21 2.95342)
(108.603 -3.95575e-19 2.86702)
(109.11 6.22514e-21 2.78121)
(109.66 0 2.69732)
(110.258 4.73053e-19 2.61646)
(110.906 -5.815e-20 2.54064)
(111.615 -4.50751e-19 2.47123)
(112.352 0 2.41485)
(113.075 3.12399e-19 2.37231)
(113.782 3.54558e-19 2.34903)
(114.47 -4.03438e-19 2.33125)
(115.136 -4.5567e-19 2.34175)
(115.777 -7.71931e-19 2.33521)
(116.395 2.82175e-19 2.38796)
(116.981 -3.57222e-21 2.36421)
(117.555 -7.25983e-19 2.48937)
(118.086 3.95416e-19 2.3849)
(118.61 0 2.66996)
(119.09 0 2.3312)
(119.568 -9.69374e-19 3.00469)
(119.956 1.22164e-18 2.06784)
(120.472 -8.35966e-19 3.66267)
(120.573 0 1.38732)
(121.499 0 4.77954)
(120.628 0 0.302235)
(120.885 -9.85041e-19 6.11174)
(104.969 1.39042e-18 -1.51159)
(105.707 2.84392e-19 3.96745)
(105.989 0 3.79437)
(106.272 3.10071e-19 3.79292)
(106.589 -3.24543e-19 3.71615)
(106.944 3.37879e-19 3.66264)
(107.325 0 3.60541)
(107.731 0 3.54711)
(108.164 0 3.49084)
(108.628 0 3.43584)
(109.13 0 3.38373)
(109.673 3.20217e-19 3.33595)
(110.262 -4.55219e-19 3.29373)
(110.9 1.1383e-19 3.25943)
(111.595 8.41026e-19 3.23438)
(112.315 -2.74333e-19 3.2241)
(113.021 -9.43663e-19 3.22493)
(113.708 -8.3686e-22 3.24538)
(114.376 -1.96578e-19 3.26539)
(115.019 0 3.31845)
(115.639 2.86782e-21 3.34039)
(116.234 0 3.4391)
(116.801 -3.1726e-19 3.42725)
(117.347 1.73976e-19 3.61095)
(117.864 -1.93477e-19 3.49238)
(118.358 8.76487e-19 3.85597)
(118.832 -9.49647e-19 3.47463)
(119.273 1.3384e-19 4.24748)
(119.661 0 3.24211)
(120.137 1.47357e-18 4.94258)
(120.247 -1.42941e-18 2.62518)
(121.122 0 6.026)
(120.249 0 1.68953)
(120.023 -2.03166e-18 7.16475)
(103.341 2.42916e-18 -0.0567197)
(105.723 -3.25353e-19 4.32539)
(106.007 3.85866e-20 4.17701)
(106.289 -3.52519e-19 4.19752)
(106.604 3.25433e-19 4.13895)
(106.957 -2.95198e-19 4.11068)
(107.335 -1.33557e-19 4.07714)
(107.738 -3.71805e-19 4.04531)
(108.166 9.31845e-20 4.01713)
(108.625 0 3.99199)
(109.12 4.13347e-19 3.97186)