/*--------------------------------*- C++ -*----------------------------------*\
| =========                 |                                                 |
| \\      /  F ield         | OpenFOAM: The Open Source CFD Toolbox           |
|  \\    /   O peration     | Version:  2.3.0                                 |
|   \\  /    A nd           | Web:      www.OpenFOAM.org                      |
|    \\/     M anipulation  |                                                 |
\*---------------------------------------------------------------------------*/
FoamFile
{
    version     2.0;
    format      ascii;
    class       volScalarField;
    location    "300";
    object      p;
}
// * * * * * * * * * * * * * * * * * * * * * * * * * * * * * * * * * * * * * //

dimensions      [0 2 -2 0 0 0 0];

internalField   nonuniform List<scalar> 
28552
(
658.091
680.567
703.375
725.611
749.254
774.263
800.147
826.798
854.094
881.715
909.191
935.845
960.735
982.514
998.542
1006.87
1006.88
998.448
981.851
957.423
926.306
888.57
847.49
799.603
755.483
700.417
658.39
599.46
570.14
504.462
505.548
421.349
474.341
396.513
617.827
640.178
661.162
680.89
701.889
723.888
746.409
769.401
792.72
816.026
838.857
860.544
880.193
896.518
907.164
910.73
906.86
895.572
877.207
852.073
821.351
784.824
746
700.737
659.605
608.775
570.277
515.558
489.072
425.907
426.631
343.539
374.96
314.683
575.195
596.243
614.85
631.967
650.367
669.472
688.819
708.405
728.045
747.38
765.956
783.125
798.021
809.439
815.375
814.846
807.655
793.911
774.029
748.276
717.894
682.334
645.309
602.161
563.073
514.821
477.97
424.71
397.111
332.13
322.889
234.034
231.535
157.47
529.378
548.749
564.794
579.379
595.283
611.619
627.966
644.353
660.56
676.219
690.889
703.957
714.602
721.685
723.524
719.473
709.44
693.574
672.338
645.942
615.699
580.768
544.975
503.425
465.705
419.143
383.049
330.559
301.951
236.163
222.656
141.336
127.55
44.7324
481.869
499.974
513.657
525.803
539.229
552.843
566.289
579.607
592.542
604.729
615.738
624.964
631.628
634.662
632.684
625.365
612.712
594.908
572.462
545.501
515.418
481.098
446.523
406.631
370.924
326.883
293.829
245.044
220.974
162.403
153.455
87.7806
87.1307
29.9142
433.887
450.532
461.888
471.772
482.783
493.744
504.392
514.756
524.553
533.431
540.974
546.605
549.59
548.925
543.508
533.297
518.378
498.95
475.563
448.272
418.549
385.094
351.946
314.068
280.58
239.538
209.279
164.208
142.987
89.8044
81.379
22.7355
19.1108
-33.8636
385.663
400.837
409.885
417.617
426.297
434.704
442.672
450.209
457.017
462.758
467.034
469.297
468.858
464.776
456.209
443.371
426.422
405.564
381.39
353.858
324.505
291.831
259.918
223.624
191.974
153.009
125.143
82.6372
63.6396
14.8674
7.2106
-43.9455
-46.3862
-90.4285
338.013
351.432
358.301
363.882
370.258
376.192
381.588
386.421
390.384
393.157
394.358
393.467
389.844
382.611
371.171
355.969
337.215
315.109
290.273
262.585
233.632
201.773
171.063
136.383
106.391
69.5659
43.3364
3.36472
-14.5963
-59.507
-67.5028
-113.877
-116.831
-152.696
291.347
303.096
307.743
311.199
315.349
318.91
321.846
324.102
325.368
325.34
323.652
319.813
313.23
303.082
289.006
271.654
251.295
228.114
202.77
175.04
146.549
115.497
85.8887
52.5447
23.9258
-11.428
-36.3737
-75.0172
-93.2077
-136.952
-148.062
-193.826
-206.333
-247.706
245.953
255.931
258.264
259.84
261.907
263.197
263.778
263.566
262.253
259.557
255.124
248.498
239.131
226.258
209.733
190.398
168.561
144.399
118.609
90.9006
62.9601
32.9173
4.7263
-26.7122
-53.2913
-86.0281
-108.839
-144.029
-160.554
-199.33
-210.019
-248.502
-257.502
-295.106
202.015
210.147
210.254
210.156
210.219
209.339
207.692
205.14
201.39
196.175
189.163
179.92
167.944
152.519
133.702
112.508
89.2932
64.2206
38.0351
10.3737
-17.0186
-46.0726
-72.8538
-102.4
-126.661
-156.43
-175.836
-206.822
-219.241
-251.742
-257.919
-289.351
-290.186
-318.632
159.612
166.249
164.283
162.49
160.566
157.598
153.806
149.005
142.919
135.303
125.836
114.122
99.6945
81.8874
60.9407
38.0111
13.4722
-12.545
-39.2672
-67.125
-94.3026
-122.778
-148.547
-176.65
-199.111
-226.542
-243.454
-270.385
-279.182
-305.034
-305.81
-328.742
-323.414
-336.425
119.716
124.674
120.689
117.285
113.461
108.52
102.708
95.7938
87.5276
77.678
65.9412
51.9464
35.2685
15.2807
-7.60662
-32.1091
-57.8378
-84.7159
-111.984
-140.198
-167.639
-196.403
-222.817
-251.788
-275.976
-305.289
-325.877
-356.703
-373.477
-406.709
-420.866
-456.041
-473.092
-503.158
82.0377
85.3241
79.4056
74.4489
68.7702
61.932
54.1746
45.2311
34.8806
22.9052
9.01824
-7.11764
-25.8895
-47.881
-72.5262
-98.4433
-125.25
-152.93
-180.749
-209.344
-237.016
-265.847
-292.208
-320.906
-344.815
-373.527
-393.849
-423.352
-439.095
-469.143
-480.411
-507.729
-518.31
-546.726
46.7697
48.3304
40.5752
34.1109
26.6454
17.9982
8.38363
-2.49091
-14.8174
-28.806
-44.7256
-62.8888
-83.6454
-107.54
-133.843
-161.039
-188.681
-216.736
-244.363
-272.188
-298.426
-325.179
-348.842
-374.115
-394.117
-417.891
-432.779
-455.21
-464.059
-485.062
-488.946
-506.514
-507.001
-521.146
13.9812
13.8211
4.40266
-3.51798
-12.6804
-23.026
-34.385
-47.0598
-61.2145
-77.046
-94.8024
-114.761
-137.235
-162.725
-190.367
-218.586
-246.958
-275.528
-303.532
-331.699
-358.332
-385.445
-409.577
-435.215
-456.018
-480.497
-497.464
-521.856
-535.032
-559.598
-570.277
-594.136
-605.044
-624.18
-16.2345
-18.0951
-29.11
-38.3789
-49.1425
-61.0698
-74.0557
-88.4006
-104.239
-121.761
-141.195
-162.798
-186.855
-213.856
-242.842
-272.189
-301.496
-330.856
-359.484
-388.154
-415.239
-442.843
-467.775
-494.38
-516.558
-542.331
-561.011
-586.314
-601.081
-625.424
-637.06
-658.423
-669.159
-690.09
-44.2149
-47.7457
-60.1999
-70.7985
-83.0907
-96.5165
-111.049
-126.968
-144.384
-163.472
-184.43
-207.474
-232.841
-260.95
-290.696
-320.395
-349.619
-378.511
-406.315
-433.82
-459.47
-485.358
-508.296
-532.259
-551.58
-573.744
-588.863
-609.669
-620.496
-639.803
-647.547
-663.666
-670.707
-684.003
-69.6998
-74.8047
-88.528
-100.318
-113.969
-128.707
-144.59
-161.868
-180.624
-201.023
-223.234
-247.449
-273.863
-302.868
-333.268
-363.36
-392.735
-421.568
-449.092
-476.165
-501.186
-526.192
-548.235
-571.519
-590.475
-612.547
-628.164
-649.318
-661.7
-681.715
-691.964
-709.234
-718.725
-736.109
-92.7322
-99.2785
-114.134
-126.951
-141.784
-157.633
-174.658
-193.069
-212.932
-234.397
-257.611
-282.731
-309.918
-339.51
-370.211
-400.291
-429.288
-457.451
-483.95
-509.727
-533.164
-556.498
-576.448
-597.148
-612.844
-631.185
-642.354
-658.591
-665.545
-679.351
-683.524
-693.06
-694.955
-701.458
-113.453
-121.258
-136.982
-150.611
-166.369
-183.053
-200.924
-220.147
-240.772
-262.941
-286.774
-312.413
-339.988
-369.836
-400.627
-430.691
-459.624
-487.746
-514.284
-540.287
-564.091
-587.986
-608.942
-631.408
-649.774
-671.512
-687.431
-708.81
-722.878
-743.852
-757.204
-776.943
-791.597
-809.34
-131.951
-140.863
-157.29
-171.572
-188.09
-205.423
-223.957
-243.796
-264.989
-287.666
-311.935
-337.919
-365.74
-395.717
-426.494
-456.428
-485.065
-512.803
-538.733
-563.977
-586.769
-609.502
-628.792
-649.194
-664.733
-683.03
-694.747
-711.041
-719.274
-733.084
-739.393
-749.753
-754.86
-763.682
-148.356
-158.206
-175.165
-189.942
-207.033
-224.832
-243.83
-264.076
-285.613
-308.562
-333.001
-359.041
-386.758
-416.444
-446.685
-475.884
-503.582
-530.218
-554.935
-578.947
-600.344
-621.635
-639.361
-658.267
-672.266
-689.246
-699.712
-715.089
-722.714
-736.113
-742.61
-753.043
-759.042
-765.987
-162.657
-173.317
-190.619
-205.748
-223.255
-241.34
-260.632
-281.098
-302.794
-325.822
-350.251
-376.173
-403.656
-432.98
-462.751
-491.456
-518.649
-544.879
-569.197
-593
-614.444
-636.291
-655.001
-675.432
-691.498
-710.912
-724.51
-743.036
-754.654
-771.554
-782.414
-796.251
-807.443
-820.247
-174.954
-186.306
-203.77
-219.186
-236.955
-255.218
-274.675
-295.24
-316.977
-339.978
-364.298
-390.03
-417.218
-446.152
-475.406
-503.522
-529.99
-555.385
-578.664
-601.206
-621.007
-640.847
-657.017
-674.37
-686.804
-701.985
-710.777
-723.686
-729.385
-739.379
-743.538
-749.48
-751.909
-755.767
-185.245
-197.185
-214.763
-230.326
-248.246
-266.555
-286.053
-306.584
-328.231
-351.068
-375.138
-400.521
-427.244
-455.568
-484.07
-511.358
-536.915
-561.422
-583.824
-605.664
-624.778
-644.074
-659.749
-676.917
-689.31
-704.83
-714.41
-728.641
-736.638
-749.221
-757.344
-767.859
-775.818
-782.28
-193.92
-206.296
-223.846
-239.462
-257.421
-275.659
-295.08
-315.45
-336.875
-359.414
-383.1
-408.014
-434.17
-461.861
-489.688
-516.393
-541.465
-565.656
-587.889
-609.786
-629.274
-649.364
-666.291
-685.021
-699.378
-716.996
-728.92
-745.145
-755.406
-769.382
-778.937
-789.63
-799.6
-808.405
-200.906
-213.636
-231.074
-246.675
-264.586
-282.682
-301.953
-322.092
-343.237
-365.424
-388.687
-413.1
-438.673
-465.684
-492.747
-518.653
-542.829
-566.101
-587.232
-607.984
-626.011
-644.561
-659.474
-676.201
-688.161
-703.202
-712.492
-725.589
-732.838
-743.223
-749.872
-756.781
-761.998
-765.899
-206.259
-219.266
-236.52
-252.027
-269.81
-287.681
-306.721
-326.543
-347.316
-369.053
-391.773
-415.546
-440.339
-466.428
-492.393
-517.142
-540.059
-562.04
-581.863
-601.345
-618.12
-635.525
-649.42
-665.203
-676.507
-691.11
-700.483
-713.911
-722.547
-734.345
-743.513
-753.582
-763.181
-770.669
-210.121
-223.319
-240.306
-255.673
-273.259
-290.844
-309.595
-329.04
-349.388
-370.623
-392.764
-415.87
-439.896
-465.11
-490.113
-513.889
-535.788
-556.774
-575.491
-593.858
-609.374
-625.404
-637.719
-651.637
-660.822
-672.703
-679.159
-688.762
-693.413
-700.11
-704.043
-707.188
-709.646
-712.524
-212.504
-225.812
-242.472
-257.644
-274.961
-292.212
-310.614
-329.633
-349.513
-370.213
-391.751
-414.187
-437.451
-461.826
-485.89
-508.741
-529.64
-549.63
-567.288
-584.604
-598.936
-613.775
-624.787
-637.438
-645.363
-656.016
-661.456
-669.97
-673.948
-679.861
-683.778
-686.72
-689.088
-690.935
-213.481
-226.844
-243.11
-258.04
-275.029
-291.891
-309.896
-328.441
-347.815
-367.947
-388.866
-410.626
-433.16
-456.757
-480.039
-502.188
-522.48
-542.037
-559.396
-576.736
-591.391
-607.016
-619.293
-633.76
-644.165
-657.818
-667.08
-679.699
-688.608
-699.365
-708.725
-718.083
-727.3
-733.167
-213.208
-226.563
-242.409
-257.053
-273.679
-290.119
-307.695
-325.738
-344.58
-364.127
-384.413
-405.501
-427.31
-450.174
-472.718
-494.269
-514.031
-533.24
-550.341
-567.559
-582.155
-597.826
-610.104
-624.458
-634.598
-647.55
-655.963
-667.144
-674.694
-683.532
-690.909
-696.95
-703.104
-707.316
-211.778
-225.065
-240.442
-254.771
-270.998
-286.981
-304.1
-321.609
-339.896
-358.829
-378.458
-398.843
-419.897
-441.956
-463.667
-484.404
-503.349
-521.732
-537.949
-554.236
-567.788
-582.267
-593.254
-606.096
-614.756
-625.951
-632.86
-642.164
-648.235
-655.136
-661.541
-666.756
-671.674
-675.43
-209.149
-222.318
-237.199
-251.187
-266.971
-282.476
-299.103
-316.051
-333.753
-352.041
-370.973
-390.601
-410.813
-431.948
-452.62
-472.304
-490.078
-507.257
-522.118
-537.002
-548.979
-561.848
-571.128
-582.208
-589.163
-598.458
-603.585
-610.789
-615.005
-619.658
-623.435
-625.413
-627.991
-630.028
-205.38
-218.394
-232.742
-246.358
-261.668
-276.661
-292.766
-309.119
-326.205
-343.814
-362.019
-380.859
-400.21
-420.412
-440.096
-458.827
-475.672
-492.009
-506.094
-520.386
-531.924
-544.573
-553.853
-565.135
-572.635
-582.727
-589.232
-597.985
-604.444
-611.582
-618.623
-623.918
-629.425
-633.187
-200.603
-213.401
-227.2
-240.415
-255.221
-269.683
-285.246
-300.989
-317.449
-334.377
-351.864
-369.945
-388.49
-407.863
-426.716
-444.733
-460.935
-476.799
-490.517
-504.566
-515.955
-528.534
-537.856
-549.157
-556.754
-566.687
-573.085
-581.231
-587.044
-592.953
-598.773
-602.519
-606.663
-609.748
-194.855
-207.395
-220.62
-233.428
-247.702
-261.626
-276.629
-291.757
-307.589
-323.84
-340.624
-357.97
-375.747
-394.338
-412.417
-429.735
-445.288
-460.534
-473.639
-487.094
-497.84
-509.724
-518.306
-528.721
-535.479
-544.351
-549.894
-556.991
-562.095
-567.077
-572.313
-575.499
-579.23
-582.119
-188.16
-200.402
-213.038
-225.425
-239.141
-252.519
-266.946
-281.453
-296.649
-312.219
-328.296
-344.899
-361.89
-379.654
-396.863
-413.34
-428.016
-442.428
-454.645
-467.279
-477.254
-488.375
-496.321
-506.094
-512.433
-520.833
-526.204
-533.011
-538.16
-543.085
-548.403
-551.5
-555.245
-558.11
-180.54
-192.446
-204.483
-216.432
-229.571
-242.395
-256.231
-270.107
-284.657
-299.535
-314.891
-330.732
-346.911
-363.817
-380.141
-395.785
-409.679
-423.377
-434.981
-447.035
-456.54
-467.242
-474.926
-484.411
-490.666
-498.809
-504.149
-510.644
-515.667
-520.099
-525.339
-528.537
-532.066
-534.855
-172.1
-183.631
-195.053
-206.556
-219.094
-231.36
-244.588
-257.827
-271.722
-285.905
-300.542
-315.631
-331.024
-347.117
-362.622
-377.509
-390.659
-403.663
-414.541
-425.893
-434.653
-444.582
-451.498
-460.073
-465.494
-472.613
-477.048
-482.448
-486.611
-490.012
-493.942
-495.774
-498.079
-499.759
-162.878
-174.001
-184.802
-195.837
-207.758
-219.456
-232.062
-244.658
-257.895
-271.383
-285.308
-299.655
-314.279
-329.574
-344.269
-358.399
-370.826
-383.155
-393.438
-404.246
-412.589
-422.114
-428.86
-437.325
-443.011
-450.461
-455.727
-461.939
-467.448
-472.415
-478.094
-482.008
-486.306
-489.533
-152.846
-163.533
-173.712
-184.268
-195.562
-206.691
-218.667
-230.624
-243.203
-256.006
-269.23
-282.855
-296.735
-311.272
-325.224
-338.679
-350.487
-362.256
-372.001
-382.279
-390.133
-399.041
-405.137
-412.625
-417.204
-423.056
-426.552
-430.473
-433.3
-435.221
-437.753
-438.231
-438.815
-439.529
-142.088
-152.303
-161.851
-171.907
-182.559
-193.108
-204.443
-215.755
-227.671
-239.786
-252.312
-265.22
-278.369
-292.166
-305.384
-318.177
-329.352
-340.543
-349.754
-359.504
-366.876
-375.303
-381.048
-388.221
-392.748
-398.626
-402.553
-407.084
-411.079
-414.087
-418.074
-420.622
-423.065
-424.686
-130.668
-140.378
-149.286
-158.829
-168.824
-178.786
-189.462
-200.122
-211.363
-222.786
-234.609
-246.797
-259.218
-272.279
-284.799
-296.977
-307.637
-318.411
-327.345
-336.959
-344.453
-353.167
-359.571
-367.555
-373.345
-380.523
-386.082
-392.108
-397.803
-402.782
-407.97
-411.641
-415.487
-418.454
-118.562
-127.748
-136.02
-145.03
-154.359
-163.726
-173.735
-183.741
-194.303
-205.032
-216.151
-227.622
-239.318
-251.654
-263.475
-275.041
-285.172
-295.49
-304.048
-313.285
-320.437
-328.649
-334.48
-341.533
-346.207
-351.831
-355.679
-359.562
-362.835
-364.789
-367.357
-368.557
-369.328
-370.064
-105.757
-114.387
-122.015
-130.47
-139.123
-147.88
-157.208
-166.549
-176.418
-186.441
-196.842
-207.58
-218.527
-230.095
-241.161
-252.016
-261.469
-271.131
-279.069
-287.672
-294.263
-301.905
-307.366
-314.117
-318.852
-324.713
-329.289
-334.241
-339.236
-343.269
-348.176
-351.985
-355.28
-357.74
-92.33
-100.384
-107.362
-115.24
-123.204
-131.338
-139.971
-148.636
-157.798
-167.105
-176.775
-186.759
-196.933
-207.691
-217.939
-228.001
-236.693
-245.607
-252.88
-260.854
-267.009
-274.254
-279.606
-286.28
-291.255
-297.331
-302.351
-307.555
-312.946
-317.335
-321.929
-325.381
-328.617
-331.562
-78.261
-85.7203
-92.0434
-99.325
-106.591
-114.087
-122.014
-129.995
-138.442
-147.028
-155.959
-165.187
-174.581
-184.521
-193.94
-203.194
-211.098
-219.192
-225.632
-232.621
-237.731
-243.631
-247.499
-252.208
-254.989
-258.302
-260.206
-261.783
-263.008
-263.222
-263.998
-263.805
-263.43
-263.755
-63.5948
-70.4223
-76.0746
-82.7306
-89.2804
-96.119
-103.325
-110.608
-118.328
-126.186
-134.376
-142.854
-151.488
-160.648
-169.288
-177.779
-184.914
-192.183
-197.754
-203.731
-207.771
-212.41
-215.024
-218.334
-219.844
-221.853
-222.826
-223.681
-224.608
-224.617
-225.244
-225.329
-225.301
-225.425
-48.4231
-54.5806
-59.5465
-65.5544
-71.3675
-77.5258
-83.9872
-90.5567
-97.5347
-104.659
-112.113
-119.857
-127.764
-136.206
-144.178
-152.082
-158.732
-165.591
-170.906
-176.718
-180.834
-185.661
-188.767
-192.667
-195.06
-197.966
-199.979
-201.682
-203.535
-204.42
-205.585
-206.092
-206.378
-206.55
-32.7421
-38.2016
-42.4711
-47.7991
-52.8545
-58.305
-63.9992
-69.8342
-76.0537
-82.4374
-89.1576
-96.1921
-103.424
-111.244
-118.709
-126.266
-132.756
-139.64
-145.211
-151.456
-156.246
-161.879
-166.006
-170.987
-174.648
-178.825
-182.327
-185.465
-188.631
-190.923
-193.567
-195.488
-197.024
-197.702
-16.5113
-21.2409
-24.7961
-29.4098
-33.6837
-38.398
-43.298
-48.3705
-53.8045
-59.4247
-65.3938
-71.7117
-78.2789
-85.5085
-92.5266
-99.8104
-106.234
-113.228
-119.151
-125.925
-131.546
-138.195
-143.715
-150.318
-156.05
-162.564
-168.892
-175.368
-182.323
-188.472
-194.696
-199.851
-204.62
-208.456
0.204066
-3.74556
-6.56313
-10.4244
-13.8876
-17.8259
-21.892
-26.16
-30.7621
-35.5702
-40.7321
-46.268
-52.0885
-58.6114
-65.0185
-71.7904
-77.8151
-84.4362
-90.0476
-96.4203
-101.612
-107.568
-112.224
-117.484
-121.514
-125.621
-128.872
-131.474
-133.873
-135.045
-136.113
-136.222
-136.133
-136.589
17.462
14.2639
12.1921
9.12329
6.50831
3.40308
0.228031
-3.17035
-6.86689
-10.7792
-15.0331
-19.6636
-24.5784
-30.1811
-35.6929
-41.5925
-46.7699
-52.4792
-57.1527
-62.4438
-66.5174
-71.1916
-74.6057
-78.5399
-81.4526
-84.6306
-87.3828
-89.8642
-92.6447
-94.6985
-97.0731
-98.9024
-100.5
-101.913
34.9465
32.6779
31.4272
29.2225
27.5114
25.3059
23.0887
20.6381
17.9348
15.0174
11.786
8.19198
4.33407
-0.176404
-4.61477
-9.48309
-13.7052
-18.4832
-22.3405
-26.8586
-30.3518
-34.5339
-37.7362
-41.5617
-44.6307
-48.027
-51.1657
-54.0658
-56.9482
-58.9744
-61.2452
-62.865
-64.2487
-65.6101
52.8434
51.4757
51.1093
49.8433
49.0964
47.8609
46.676
45.2575
43.6397
41.8176
39.7172
37.2717
34.581
31.2604
27.9561
24.1262
20.8043
16.8477
13.6689
9.79774
6.84064
3.26189
0.63409
-2.42612
-4.64286
-6.89044
-8.64472
-9.94488
-11.3975
-11.9776
-12.5277
-12.5607
-12.4395
-12.5356
71.1505
70.7044
71.2377
70.9515
71.2154
71.019
70.9419
70.6431
70.2058
69.5819
68.722
67.5369
66.1236
64.0967
62.0126
59.2868
56.9157
53.8317
51.3751
48.1908
45.7964
42.7415
40.455
37.6758
35.4741
33.0333
30.7579
28.7807
26.2906
24.4117
22.5822
21.1094
19.8266
18.8895
89.7352
90.2744
91.7398
92.4828
93.8082
94.72
95.8279
96.7411
97.5875
98.2777
98.786
99
99.013
98.4382
97.7292
96.2457
94.9259
92.7565
91.0931
88.5489
86.4662
83.6109
81.274
78.3026
75.6889
72.7679
69.8226
67.1568
64.418
62.2647
60.079
58.3575
56.8141
55.4914
108.486
110.065
112.503
114.337
116.783
118.879
121.257
123.484
125.732
127.872
129.905
131.694
133.333
134.437
135.345
135.352
135.352
134.379
133.577
131.879
130.852
128.952
127.334
125.278
123.63
121.901
120.284
119.038
117.56
116.576
115.781
115.342
114.985
114.568
127.336
129.979
133.421
136.403
140.028
143.389
147.125
150.774
154.55
158.292
162.027
165.602
169.111
172.179
175.023
176.852
178.506
179.122
179.764
179.385
179.141
178.112
177.618
176.377
175.297
173.964
172.299
170.837
168.942
167.323
165.91
164.736
163.641
162.672
146.138
149.88
154.346
158.524
163.381
168.083
173.262
178.444
183.881
189.387
195.022
200.618
206.279
211.646
216.801
220.843
224.533
227.073
229.461
230.795
232.002
232.26
232.544
232.194
231.957
231.419
230.825
230.571
229.871
229.363
229.032
228.822
228.629
228.385
164.709
169.536
175.077
180.497
186.627
192.735
199.431
206.244
213.469
220.9
228.633
236.498
244.613
252.646
260.527
267.214
273.375
278.25
282.727
286.01
288.999
290.976
292.646
293.475
294.086
294.337
294.116
293.923
293.452
293.034
292.63
292.19
291.696
291.247
182.919
188.829
195.453
202.125
209.548
217.102
225.367
233.891
243.008
252.505
262.524
272.902
283.784
294.883
305.969
315.833
325.037
332.862
340.063
345.908
351.2
355.312
359.002
361.753
364.026
365.839
367.072
368.036
368.633
369.165
369.551
369.778
369.852
369.867
200.6
207.573
215.255
223.155
231.863
240.869
250.712
260.987
272.057
283.719
296.171
309.272
323.216
337.789
352.614
366.288
379.255
390.828
401.617
410.932
419.445
426.554
432.927
438.114
442.541
446.253
449.085
451.405
453.025
454.204
454.994
455.418
455.543
455.612
217.48
225.466
234.159
243.236
253.181
263.595
274.978
286.984
300.001
313.858
328.811
344.771
362
380.401
399.485
417.65
435.232
451.568
467.117
481.22
494.394
506.048
516.71
525.955
534.164
541.373
547.348
552.418
556.381
559.484
561.758
563.253
564.098
564.619
233.141
242.014
251.589
261.679
272.705
284.349
297.091
310.631
325.393
341.236
358.49
377.127
397.505
419.666
443.078
465.958
488.579
510.282
531.41
551.274
570.254
587.705
604.014
618.695
632.069
644.101
654.465
663.303
670.315
675.853
680.025
682.971
684.953
686.378
246.223
255.748
265.983
276.841
288.7
301.272
315.047
329.746
345.839
363.204
382.248
402.985
425.877
451.103
478.166
505.177
532.447
559.384
586.356
612.73
638.874
664.168
688.934
712.603
735.327
756.847
776.535
794.376
809.329
821.048
829.807
835.844
839.449
841.409
256.053
266.069
276.776
288.105
300.521
313.681
328.155
343.608
360.572
378.929
399.11
421.206
445.715
472.986
502.477
532.367
562.918
593.706
625.023
656.357
687.93
719.123
750.065
780.115
809.101
836.731
862.46
884.63
902.448
918.75
934.417
948.075
958.256
964.099
699.07
724.338
749.684
773.817
799.444
826.781
855.209
884.611
914.934
945.895
977.049
1007.74
1037.04
1063.61
1084.51
1097.43
1101.66
1096.95
1083.45
1061.4
1031.77
994.733
953.147
904.24
857.316
798.983
752.765
687.644
650.206
576.445
565.182
468.65
515.771
407.163
738.542
766.111
793.6
819.358
846.788
876.211
906.905
938.774
971.833
1005.84
1040.4
1074.9
1108.48
1139.85
1165.86
1184.01
1193.34
1193.41
1184.17
1165.74
1138.91
1103.94
1063.21
1014.7
966.09
906.09
858.085
787.098
745.433
658.788
638.275
521.368
538.859
370.235
778.737
807.592
836.72
864.343
893.737
925.327
958.433
992.966
1028.99
1066.31
1104.6
1143.31
1181.63
1218.38
1250.32
1274.41
1289.51
1295.05
1290.84
1276.86
1253.68
1221.61
1182.59
1135.34
1086.11
1025.53
975.932
901.749
856.168
762.241
739.384
612.775
627.733
476.391
819.715
849.662
880.326
909.879
941.268
975.015
1010.54
1047.77
1086.8
1127.52
1169.65
1212.74
1256.08
1298.61
1336.93
1367.63
1389.45
1401.6
1403.61
1395.26
1376.88
1348.79
1312.56
1267.56
1218.99
1159.81
1107.93
1032.62
985.702
887.402
858.657
718.719
714.527
524.498
859.567
890.613
922.763
954.274
987.713
1023.66
1061.66
1101.69
1143.86
1188.15
1234.37
1282.15
1330.91
1379.74
1425.16
1463.37
1492.85
1512.56
1521.82
1520.22
1507.81
1484.79
1452.31
1410.22
1362.73
1304.58
1250.74
1176.77
1131.63
1035.53
1013.18
876.412
883.733
719.426
898.817
930.929
964.431
997.824
1033.29
1071.43
1111.9
1154.73
1200.07
1247.98
1298.37
1350.99
1405.4
1460.91
1513.92
1560.26
1598.27
1626.75
1644.73
1651.44
1646.56
1630.04
1602.63
1564.42
1518.65
1461.57
1405.87
1332.24
1283.32
1187.68
1164.34
1035.41
1068.58
925.038
935.403
968.428
1003.17
1038.4
1075.86
1116.1
1158.97
1204.51
1252.97
1304.47
1359.03
1416.56
1476.79
1539.27
1600.41
1655.77
1703.5
1742.1
1770.3
1787.06
1791.71
1783.88
1763.86
1731.64
1689.42
1634.66
1577.58
1501.32
1444.33
1344.68
1308.21
1166.71
1196.05
1017.87
968.935
1002.79
1038.6
1075.47
1114.73
1156.89
1201.94
1250.02
1301.4
1356.3
1414.88
1477.18
1543.14
1612.6
1682.04
1746.71
1804.7
1854.38
1894.34
1923.2
1939.83
1943.37
1933.55
1910.1
1874.32
1824.7
1768.42
1691.59
1626.44
1519.05
1468.77
1305.4
1304.67
1049.43
998.581
1033.08
1069.76
1108.08
1148.97
1192.87
1239.9
1290.28
1344.34
1402.38
1464.69
1531.49
1602.93
1679.18
1756.85
1831.09
1900
1961.82
2014.85
2057.39
2087.91
2105.14
2108.25
2096.56
2070.46
2028.74
1976
1903.08
1834.61
1721.29
1661.95
1489.83
1476.5
1207.22
1023.63
1058.66
1096.03
1135.59
1177.87
1223.23
1271.93
1324.28
1380.65
1441.44
1507.06
1577.91
1654.37
1736.94
1822.44
1906
1985.75
2059.89
2126.64
2184.17
2230.64
2264.37
2283.85
2287.77
2275.62
2246.06
2201.74
2136.02
2066.5
1953.92
1885.63
1704.64
1678.83
1374.26
1043.26
1078.61
1116.37
1156.81
1200.13
1246.59
1296.55
1350.41
1408.59
1471.56
1539.85
1614.02
1694.67
1782.65
1875.05
1967.13
2057.21
2143.62
2224.6
2298.19
2362.33
2414.88
2453.81
2477.16
2483.51
2470.94
2440.22
2385.87
2320.18
2214.4
2139.47
1946.63
1913.81
1604.73
1056.27
1091.82
1129.73
1170.67
1214.65
1261.79
1312.54
1367.36
1426.72
1491.16
1561.31
1637.88
1721.66
1813.81
1911.75
2011.01
2110.18
2207.76
2302.16
2391.52
2473.73
2546.46
2607.31
2653.75
2683.43
2693.64
2683.46
2647.83
2594.12
2500.07
2415.18
2220.28
2168.77
1805.47
1062.3
1097.84
1135.57
1176.59
1220.75
1268.08
1319.05
1374.19
1434
1499.07
1570.09
1647.9
1733.45
1828.13
1929.72
2034.13
2140.27
2246.96
2352.91
2456.54
2555.93
2648.85
2732.81
2804.95
2862.27
2901.29
2919.24
2910.53
2877.78
2801.61
2720.08
2533.62
2471.67
2093.73
1061.16
1096.4
1133.65
1174.35
1218.23
1265.26
1315.89
1370.7
1430.21
1495.04
1565.92
1643.77
1729.62
1825.06
1928.2
2035.43
2146.05
2259.22
2374.04
2489.34
2603.65
2715.08
2821.33
2919.57
3006.52
3078.14
3130.3
3156.7
3155.89
3110.42
3044.65
2877.49
2800.05
2394.97
1051.91
1086.56
1123.05
1163
1206.13
1252.32
1302.02
1355.81
1414.23
1477.88
1547.53
1624.07
1708.62
1802.82
1905.12
2012.44
2124.42
2240.59
2360.49
2483.43
2608.47
2734.3
2859.18
2980.84
3096.38
3201.91
3292.94
3362.64
3406.16
3406.45
3375.12
3245.79
3156.44
2727.02
1035.6
1069.38
1104.8
1143.59
1185.5
1230.35
1278.56
1330.69
1387.28
1448.91
1516.31
1590.36
1672.18
1763.38
1862.69
1967.58
2077.98
2193.75
2314.81
2440.98
2571.9
2706.98
2845.28
2985.39
3125.28
3261.91
3391.18
3506.66
3601.69
3660.05
3682.85
3610.63
3539.69
3140.83
1011.85
1044.52
1078.65
1116
1156.32
1199.43
1245.69
1295.64
1349.79
1408.67
1472.98
1543.54
1621.39
1708.04
1802.49
1902.73
2008.91
2121.16
2239.68
2364.72
2496.45
2634.92
2780.04
2931.41
3088.22
3248.87
3410.74
3569.03
3717.4
3841.8
3934.52
3941.37
3920.02
3581.09
981.979
1013.27
1045.82
1081.35
1119.68
1160.61
1204.47
1251.73
1302.87
1358.36
1418.83
1485.03
1557.89
1638.76
1726.83
1820.61
1920.39
2026.46
2139.25
2259.28
2387.13
2523.37
2668.61
2823.39
2988.1
3162.76
3346.71
3537.85
3732.31
3920.22
4090.98
4201.93
4260.42
4038.3
945.213
975.02
1005.99
1039.63
1075.86
1114.48
1155.77
1200.14
1248.01
1299.81
1356.08
1417.47
1484.79
1559.2
1640.07
1726.36
1818.47
1916.75
2021.77
2134.22
2254.89
2384.73
2524.79
2676.31
2840.64
3019.18
3213.21
3423.44
3649.46
3887.03
4128.33
4346.09
4515.85
4505.69
905.279
933.331
962.388
993.841
1027.65
1063.65
1102.05
1143.23
1187.53
1235.33
1287.08
1343.34
1404.78
1472.35
1545.61
1623.9
1707.65
1797.28
1893.41
1996.78
2108.32
2229.14
2360.54
2504.14
2661.89
2836.12
3029.51
3245.02
3485.58
3752.67
4045.01
4348.71
4633.42
4810.73
860.139
886.52
913.825
943.178
974.6
1007.99
1043.53
1081.51
1122.2
1165.89
1212.99
1263.95
1319.33
1379.87
1445.28
1515.27
1590.27
1670.7
1757.17
1850.47
1951.51
2061.41
2181.52
2313.53
2459.55
2622.24
2804.92
3011.77
3247.94
3519.11
3831
4183.4
4560.52
4879.39
809.088
833.556
859.019
886.172
915.098
945.767
978.357
1013.16
1050.36
1090.06
1132.62
1178.46
1227.97
1281.73
1339.57
1401.51
1467.97
1539.35
1616.24
1699.36
1789.6
1888.04
1996.03
2115.13
2247.36
2395.23
2561.95
2751.6
2969.43
3221.79
3516.3
3859.59
4239.83
4636.37
765.587
788.29
811.701
836.645
863.206
891.363
921.275
953.1
986.904
1022.91
1061.48
1102.86
1147.32
1195.3
1246.89
1302.27
1361.79
1425.81
1494.86
1569.58
1650.7
1739.2
1836.26
1943.23
2061.81
2194.12
2342.8
2511.14
2702.98
2922.95
3174.23
3455.95
3746.45
3899.47
704.64
725.756
747.743
770.683
794.836
820.364
847.339
875.775
905.752
937.575
971.435
1007.46
1045.84
1086.8
1130.44
1177.36
1227.99
1282.68
1341.93
1406.32
1476.65
1553.86
1638.94
1732.94
1837.22
1953.37
2083.25
2228.61
2391.83
2570.72
2769.21
2935
3120.9
2596.49
8.52187
8.5265
8.54859
8.58974
8.64937
8.73013
8.83532
8.96817
9.13257
9.33336
9.5764
9.8689
10.2198
10.6406
11.1457
11.7541
12.4911
13.3909
14.5013
15.8909
17.6617
19.9719
23.0821
27.3169
32.8371
39.61
47.8371
57.8202
69.8913
84.4563
101.924
122.758
147.358
176.1
209.164
246.563
287.934
332.62
379.481
427.141
473.872
518.094
558.181
593.267
622.393
646.177
663.579
678.257
685.629
8.336
8.33952
8.36097
8.40128
8.45971
8.5388
8.64184
8.77204
8.93319
9.13004
9.36834
9.65519
9.99939
10.4121
10.9077
11.5048
12.2282
13.1116
14.202
15.5669
17.307
19.5783
22.6377
26.81
32.2608
38.9628
47.1195
57.0352
69.0506
83.5796
101.047
121.933
146.667
175.656
209.13
247.153
289.442
335.404
383.989
433.864
483.352
530.824
574.622
613.681
647.002
674.841
696.46
714.463
725.239
8.10544
8.10902
8.12996
8.16925
8.22626
8.3034
8.40392
8.53097
8.68826
8.8804
9.11305
9.39312
9.72926
10.1324
10.6166
11.2
11.907
12.7706
13.8371
15.1726
16.876
19.1006
22.0996
26.1973
31.5655
38.183
46.2565
56.0921
68.0386
82.518
99.971
120.892
145.739
174.945
208.786
247.374
290.494
337.618
387.779
439.696
491.743
542.261
589.565
632.433
669.78
701.603
727.177
748.703
762.942
7.82405
7.82829
7.84818
7.88603
7.9413
8.01605
8.11345
8.23663
8.38918
8.57557
8.80131
9.07313
9.39946
9.79091
10.2611
10.828
11.5152
12.355
13.3924
14.6923
16.3514
18.5199
21.446
25.4542
30.7233
37.2395
45.212
54.9495
66.8114
81.2289
98.6596
119.615
144.581
174.022
208.259
247.451
291.45
339.791
391.584
445.596
500.245
553.85
604.689
651.407
692.824
728.713
758.308
783.5
801.206
7.49603
7.49963
7.51844
7.55483
7.60813
7.68017
7.77404
7.89281
8.03993
8.21974
8.43753
8.69986
9.01485
9.39283
9.84702
10.3947
11.059
11.8712
12.8751
14.1337
15.7415
17.845
20.6868
24.5902
29.743
36.1397
43.9932
53.6145
65.3729
79.7091
97.0977
118.067
143.13
172.778
207.375
247.126
291.943
341.422
394.744
450.729
507.842
564.393
618.63
669.091
714.493
754.42
788.031
816.957
838.222
7.13643
7.13986
7.15789
7.19281
7.24397
7.31312
7.4032
7.51722
7.65849
7.83117
8.04038
8.29243
8.59516
8.95853
9.39532
9.92226
10.5616
11.3438
12.3112
13.525
15.0769
17.1094
19.8591
23.6474
28.6713
34.9338
42.6498
52.1334
63.7636
77.9907
95.305
116.251
141.367
171.172
206.071
246.31
291.862
342.383
397.126
454.967
514.418
573.795
631.324
685.452
734.798
778.771
816.453
849.234
874.316
6.77475
6.77795
6.79503
6.82831
6.87723
6.94339
7.02961
7.13877
7.27407
7.43949
7.63995
7.88152
8.17176
8.52026
8.93933
9.4451
10.0591
10.8106
11.7408
12.9088
14.4036
16.3637
19.0189
22.6879
27.5759
33.6944
41.2615
50.5931
62.0752
76.1664
93.3708
114.247
139.355
169.238
204.336
244.936
291.066
342.438
398.378
457.823
519.343
581.278
641.849
699.438
752.582
800.529
842.273
878.944
907.856