/*--------------------------------*- C++ -*----------------------------------*\
| =========                 |                                                 |
| \\      /  F ield         | OpenFOAM: The Open Source CFD Toolbox           |
|  \\    /   O peration     | Version:  2.3.0                                 |
|   \\  /    A nd           | Web:      www.OpenFOAM.org                      |
|    \\/     M anipulation  |                                                 |
\*---------------------------------------------------------------------------*/
FoamFile
{
    version     2.0;
    format      ascii;
    class       volScalarField;
    location    "100";
    object      nut;
}
// * * * * * * * * * * * * * * * * * * * * * * * * * * * * * * * * * * * * * //

dimensions      [0 2 -1 0 0 0 0];

internalField   nonuniform List<scalar> 
28552
(
1.77333e-05
1.54618e-05
1.53255e-05
1.52253e-05
1.51085e-05
1.5271e-05
1.57286e-05
1.64699e-05
1.7387e-05
1.8806e-05
2.06639e-05
2.30486e-05
2.60803e-05
3.00453e-05
3.41538e-05
3.88624e-05
4.44047e-05
3.9313e-05
3.1945e-05
2.61336e-05
2.15156e-05
1.78967e-05
1.49565e-05
1.27703e-05
1.08355e-05
9.625e-06
8.21033e-06
7.21242e-06
6.19971e-06
5.63148e-06
5.44514e-06
6.73849e-06
7.61253e-06
4.5095e-07
1.91781e-05
1.62027e-05
1.64776e-05
1.64867e-05
1.63616e-05
1.65879e-05
1.71256e-05
1.79496e-05
1.91152e-05
2.06817e-05
2.27132e-05
2.53049e-05
2.8572e-05
3.27711e-05
3.70982e-05
4.20727e-05
4.77116e-05
3.92159e-05
3.1968e-05
2.6239e-05
2.16682e-05
1.80874e-05
1.51581e-05
1.29935e-05
1.10632e-05
9.81802e-06
8.39813e-06
7.32037e-06
6.3195e-06
5.68519e-06
5.49241e-06
6.78415e-06
7.71252e-06
5.197e-07
2.00625e-05
1.65004e-05
1.70517e-05
1.71228e-05
1.70487e-05
1.73985e-05
1.80693e-05
1.90321e-05
2.03525e-05
2.2092e-05
2.43191e-05
2.71363e-05
3.06806e-05
3.52248e-05
3.98726e-05
4.51798e-05
4.81075e-05
3.91223e-05
3.19885e-05
2.63395e-05
2.18143e-05
1.82733e-05
1.53563e-05
1.32161e-05
1.12925e-05
1.00003e-05
8.57736e-06
7.42542e-06
6.43894e-06
5.74346e-06
5.594e-06
6.86847e-06
7.76862e-06
6.06389e-07
2.10494e-05
1.69362e-05
1.78718e-05
1.80065e-05
1.80164e-05
1.84943e-05
1.92862e-05
2.03794e-05
2.18502e-05
2.37594e-05
2.61796e-05
2.92194e-05
3.30231e-05
3.78886e-05
4.28531e-05
4.84989e-05
4.78162e-05
3.89995e-05
3.19798e-05
2.64139e-05
2.19373e-05
1.84413e-05
1.55409e-05
1.34316e-05
1.15184e-05
1.01629e-05
8.73667e-06
7.51566e-06
6.54473e-06
5.80147e-06
5.67555e-06
6.97377e-06
7.78016e-06
6.93984e-07
2.22085e-05
1.75383e-05
1.892e-05
1.90859e-05
1.91796e-05
1.97969e-05
2.07182e-05
2.19528e-05
2.35893e-05
2.56885e-05
2.83287e-05
3.16273e-05
3.5736e-05
4.09662e-05
4.62776e-05
5.22993e-05
4.76362e-05
3.89622e-05
3.20379e-05
2.65425e-05
2.21052e-05
1.86479e-05
1.57616e-05
1.368e-05
1.17783e-05
1.0327e-05
8.89624e-06
7.61152e-06
6.65195e-06
5.8632e-06
5.75275e-06
7.05627e-06
7.79996e-06
8.07216e-07
2.34131e-05
1.81701e-05
2.01147e-05
2.02932e-05
2.04761e-05
2.12445e-05
2.23103e-05
2.37041e-05
2.55257e-05
2.78361e-05
3.07213e-05
3.43084e-05
3.8762e-05
4.44194e-05
5.01547e-05
5.66443e-05
4.74789e-05
3.89408e-05
3.21074e-05
2.66811e-05
2.22826e-05
1.88652e-05
1.59947e-05
1.39444e-05
1.20202e-05
1.04764e-05
9.04264e-06
7.69808e-06
6.75172e-06
5.92295e-06
5.82529e-06
7.15524e-06
7.82384e-06
9.58595e-07
2.52614e-05
1.88554e-05
2.12975e-05
2.14535e-05
2.17138e-05
2.26044e-05
2.37851e-05
2.53093e-05
2.72828e-05
2.97674e-05
3.29809e-05
3.68101e-05
4.15476e-05
4.75498e-05
5.36105e-05
5.79376e-05
4.73841e-05
3.89691e-05
3.22174e-05
2.68546e-05
2.2491e-05
1.91115e-05
1.62566e-05
1.42129e-05
1.2256e-05
1.06244e-05
9.18745e-06
7.78906e-06
6.85207e-06
5.98777e-06
5.89549e-06
7.24911e-06
7.86405e-06
1.16378e-06
2.86956e-05
1.97755e-05
2.26451e-05
2.29296e-05
2.32968e-05
2.43533e-05
2.56958e-05
2.7403e-05
2.95849e-05
3.23034e-05
3.56603e-05
3.97975e-05
4.48986e-05
5.13465e-05
5.78359e-05
5.77525e-05
4.73539e-05
3.90509e-05
3.23729e-05
2.70682e-05
2.27365e-05
1.93928e-05
1.65535e-05
1.44736e-05
1.24885e-05
1.07743e-05
9.33334e-06
7.88738e-06
6.95556e-06
6.05885e-06
5.9679e-06
7.34413e-06
7.92365e-06
1.4642e-06
3.00402e-05
2.06326e-05
2.41393e-05
2.4244e-05
2.4735e-05
2.59408e-05
2.74186e-05
2.92823e-05
3.16446e-05
3.45711e-05
3.81762e-05
4.26149e-05
4.8561e-05
5.55053e-05
6.24788e-05
5.76082e-05
4.73528e-05
3.91548e-05
3.25461e-05
2.72981e-05
2.29979e-05
1.96916e-05
1.68699e-05
1.47103e-05
1.26996e-05
1.09086e-05
9.46457e-06
7.9781e-06
7.04924e-06
6.13121e-06
6.03029e-06
7.45788e-06
7.94759e-06
1.90573e-06
2.82558e-05
2.14863e-05
2.54732e-05
2.57189e-05
2.63902e-05
2.77582e-05
2.939e-05
3.14369e-05
3.40072e-05
3.71703e-05
4.10513e-05
4.58152e-05
5.16789e-05
5.91071e-05
6.66343e-05
5.75466e-05
4.74168e-05
3.93118e-05
3.2764e-05
2.75674e-05
2.32962e-05
2.00266e-05
1.72025e-05
1.49342e-05
1.28972e-05
1.10341e-05
9.58493e-06
8.06366e-06
7.13329e-06
6.19843e-06
6.08295e-06
7.57261e-06
7.96344e-06
2.59492e-06
2.8593e-05
2.23531e-05
2.70157e-05
2.71286e-05
2.82182e-05
2.97553e-05
3.15468e-05
3.37936e-05
3.65913e-05
4.0015e-05
4.4202e-05
4.93269e-05
5.56223e-05
6.35891e-05
6.99417e-05
5.74934e-05
4.74883e-05
3.94774e-05
3.29922e-05
2.78505e-05
2.36115e-05
2.03841e-05
1.7507e-05
1.51366e-05
1.30756e-05
1.11437e-05
9.69326e-06
8.13963e-06
7.21137e-06
6.26186e-06
6.13355e-06
7.66638e-06
8.05323e-06
3.81496e-06
3.00048e-05
2.3423e-05
2.86781e-05
2.86919e-05
2.97869e-05
3.14695e-05
3.34104e-05
3.61628e-05
3.91826e-05
4.28633e-05
4.73528e-05
5.28375e-05
5.95641e-05
6.8078e-05
6.99565e-05
5.76477e-05
4.77376e-05
3.97966e-05
3.33552e-05
2.82519e-05
2.40349e-05
2.08046e-05
1.78675e-05
1.53947e-05
1.33042e-05
1.13078e-05
9.84457e-06
8.26278e-06
7.32477e-06
6.34868e-06
6.21295e-06
7.74453e-06
8.38068e-06
6.58154e-06
3.14156e-05
2.46111e-05
3.04324e-05
3.03615e-05
3.17264e-05
3.35915e-05
3.57191e-05
3.83972e-05
4.20464e-05
4.60335e-05
5.08901e-05
5.68175e-05
6.40875e-05
7.3302e-05
6.99553e-05
5.77831e-05
4.79672e-05
4.00976e-05
3.37025e-05
2.8642e-05
2.44508e-05
2.1174e-05
1.81839e-05
1.56161e-05
1.34997e-05
1.14416e-05
9.96762e-06
8.36233e-06
7.41137e-06
6.42926e-06
6.26707e-06
7.90405e-06
9.60069e-06
1.91693e-05
3.28044e-05
2.58956e-05
3.2253e-05
3.2081e-05
3.37525e-05
3.58143e-05
3.81511e-05
4.14313e-05
4.49765e-05
4.92792e-05
5.45144e-05
6.09032e-05
6.87425e-05
7.87078e-05
6.99582e-05
5.79191e-05
4.81966e-05
4.04005e-05
3.40548e-05
2.90427e-05
2.48839e-05
2.1495e-05
1.84524e-05
1.57993e-05
1.36563e-05
1.15479e-05
1.00609e-05
8.4477e-06
7.47964e-06
6.50561e-06
6.31071e-06
8.0606e-06
1.44244e-05
4.78381e-05
3.42569e-05
2.72337e-05
3.40714e-05
3.38151e-05
3.58163e-05
3.80917e-05
4.10028e-05
4.41476e-05
4.7968e-05
5.26008e-05
5.82365e-05
6.51165e-05
7.35748e-05
8.43666e-05
7.01291e-05
5.82065e-05
4.85644e-05
4.08309e-05
3.45275e-05
2.95568e-05
2.53619e-05
2.18521e-05
1.87569e-05
1.60188e-05
1.38455e-05
1.16884e-05
1.01857e-05
8.55598e-06
7.57583e-06
6.58554e-06
6.37448e-06
8.13179e-06
1.86877e-05
0.000101381
3.57535e-05
2.87663e-05
3.59399e-05
3.56651e-05
3.80199e-05
4.08456e-05
4.3632e-05
4.70591e-05
5.12063e-05
5.62389e-05
6.23654e-05
6.98607e-05
7.90968e-05
8.5013e-05
7.03519e-05
5.85358e-05
4.8967e-05
4.12915e-05
3.50277e-05
3.00983e-05
2.58218e-05
2.21982e-05
1.90511e-05
1.62312e-05
1.40265e-05
1.18221e-05
1.03008e-05
8.65956e-06
7.65901e-06
6.66944e-06
6.42844e-06
8.45356e-06
4.11927e-05
0.000183306
3.72067e-05
3.04145e-05
3.79285e-05
3.78911e-05
4.06128e-05
4.33654e-05
4.64375e-05
5.01835e-05
5.4703e-05
6.01954e-05
6.68935e-05
7.51132e-05
8.52899e-05
8.50426e-05
7.05318e-05
5.88291e-05
4.93416e-05
4.17339e-05
3.55206e-05
3.05759e-05
2.62102e-05
2.24845e-05
1.92876e-05
1.63982e-05
1.41635e-05
1.19259e-05
1.03835e-05
8.74809e-06
7.7202e-06
6.7471e-06
6.49427e-06
1.09806e-05
8.399e-05
0.000281271
3.8924e-05
3.23573e-05
4.01183e-05
3.97616e-05
4.28467e-05
4.58688e-05
4.92458e-05
5.33208e-05
5.82249e-05
6.41958e-05
7.14929e-05
8.04844e-05
9.1962e-05
8.52317e-05
7.08584e-05
5.9259e-05
4.98452e-05
4.22982e-05
3.61314e-05
3.10705e-05
2.66188e-05
2.27938e-05
1.95475e-05
1.65907e-05
1.43231e-05
1.20522e-05
1.04887e-05
8.8507e-06
7.80166e-06
6.82938e-06
6.55017e-06
1.34357e-05
0.000115926
0.000373783
4.04851e-05
3.43227e-05
4.21779e-05
4.18507e-05
4.53217e-05
4.86583e-05
5.23991e-05
5.6859e-05
6.22123e-05
6.87347e-05
7.67098e-05
8.69305e-05
9.84596e-05
8.53589e-05
7.11214e-05
5.96273e-05
5.02924e-05
4.28148e-05
3.66422e-05
3.14511e-05
2.69193e-05
2.30073e-05
1.97171e-05
1.67036e-05
1.44113e-05
1.21185e-05
1.05301e-05
8.90826e-06
7.82873e-06
6.90658e-06
7.26639e-06
2.9839e-05
0.000176564
0.00043996
4.20314e-05
3.63935e-05
4.42659e-05
4.39723e-05
4.78051e-05
5.14465e-05
5.55454e-05
6.03649e-05
6.61341e-05
7.37807e-05
8.21097e-05
9.22216e-05
0.000103114
8.56523e-05
7.15379e-05
6.01377e-05
5.08717e-05
4.34522e-05
3.71969e-05
3.18869e-05
2.72817e-05
2.32893e-05
1.99551e-05
1.68898e-05
1.45657e-05
1.22488e-05
1.06385e-05
9.01052e-06
7.91176e-06
6.97655e-06
7.36415e-06
3.23393e-05
0.000187061
0.000479004
4.35801e-05
3.86162e-05
4.64254e-05
4.62093e-05
5.04131e-05
5.44102e-05
5.89214e-05
6.41576e-05
7.10005e-05
7.84375e-05
8.74075e-05
9.82938e-05
0.000103124
8.58232e-05
7.18286e-05
6.05228e-05
5.13294e-05
4.39583e-05
3.7592e-05
3.21789e-05
2.75094e-05
2.34481e-05
2.00794e-05
1.6968e-05
1.46132e-05
1.22854e-05
1.06517e-05
9.05426e-06
7.91517e-06
7.15277e-06
1.03914e-05
6.02984e-05
0.0002448
0.000497805
4.51636e-05
4.09655e-05
4.86269e-05
4.84798e-05
5.30213e-05
5.73533e-05
6.27825e-05
6.83323e-05
7.48837e-05
8.27765e-05
9.22929e-05
0.000103842
0.000103198
8.60512e-05
7.21727e-05
6.09588e-05
5.18374e-05
4.44436e-05
3.79786e-05
3.24733e-05
2.77439e-05
2.36227e-05
2.02188e-05
1.70721e-05
1.46922e-05
1.23537e-05
1.07009e-05
9.10441e-06
7.94662e-06
7.1894e-06
1.15058e-05
7.17402e-05
0.000266276
0.000493009
4.67609e-05
4.34398e-05
5.09076e-05
5.12831e-05
5.61502e-05
6.08349e-05
6.6106e-05
7.20315e-05
7.90056e-05
8.74095e-05
9.75482e-05
0.000109878
0.000103334
8.6334e-05
7.25665e-05
6.14402e-05
5.23875e-05
4.49051e-05
3.83527e-05
3.27643e-05
2.79814e-05
2.38052e-05
2.03695e-05
1.71887e-05
1.47855e-05
1.24328e-05
1.07628e-05
9.16959e-06
7.98614e-06
7.23481e-06
1.28308e-05
8.29274e-05
0.00028449
0.000483581
4.8801e-05
4.62767e-05
5.3612e-05
5.36135e-05
5.87868e-05
6.38467e-05
6.95389e-05
7.58706e-05
8.33011e-05
9.2243e-05
0.000103028
0.00011613
0.000103406
8.65444e-05
7.28811e-05
6.18402e-05
5.2839e-05
4.52438e-05
3.86099e-05
3.29481e-05
2.81155e-05
2.38816e-05
2.04171e-05
1.72168e-05
1.47889e-05
1.24472e-05
1.07394e-05
9.18435e-06
7.99063e-06
7.80877e-06
2.07573e-05
0.00011009
0.000328681
0.000467295
5.0439e-05
4.8938e-05
5.59257e-05
5.59669e-05
6.1354e-05
6.6765e-05
7.28312e-05
7.95166e-05
8.73248e-05
9.67106e-05
0.000108018
0.000121755
0.000103616
8.68776e-05
7.33098e-05
6.23463e-05
5.33355e-05
4.56353e-05
3.8924e-05
3.31923e-05
2.83105e-05
2.40334e-05
2.05366e-05
1.7313e-05
1.48602e-05
1.25127e-05
1.0786e-05
9.21365e-06
8.0174e-06
7.83438e-06
2.2162e-05
0.000119827
0.000348197
0.000444419
5.20524e-05
5.1763e-05
5.82928e-05
5.85628e-05
6.41194e-05
6.99583e-05
7.64302e-05
8.3526e-05
9.17801e-05
0.000101692
0.000113644
0.000122389
0.000103784
8.71769e-05
7.37102e-05
6.28291e-05
5.37647e-05
4.59735e-05
3.91948e-05
3.34021e-05
2.84781e-05
2.41622e-05
2.06389e-05
1.73925e-05
1.49195e-05
1.25672e-05
1.08151e-05
9.24309e-06
8.03209e-06
8.14478e-06
2.74558e-05
0.00013827
0.00038767
0.000427365
5.38119e-05
5.45265e-05
6.07116e-05
6.11226e-05
6.68646e-05
7.31442e-05
8.0033e-05
8.75677e-05
9.62861e-05
0.000106748
0.000119342
0.000122365
0.000103904
8.74255e-05
7.40577e-05
6.32593e-05
5.41086e-05
4.62355e-05
3.93948e-05
3.35495e-05
2.85848e-05
2.4231e-05
2.06824e-05
1.74248e-05
1.49288e-05
1.25858e-05
1.07996e-05
9.24926e-06
8.06039e-06
9.1579e-06
3.79205e-05
0.000167346
0.000454579
0.000409639
5.56313e-05
5.74378e-05
6.32209e-05
6.38209e-05
6.96828e-05
7.64129e-05
8.36888e-05
9.16497e-05
0.000100807
0.00011179
0.000125012
0.000122379
0.000104062
8.77106e-05
7.44427e-05
6.36885e-05
5.44478e-05
4.65014e-05
3.96039e-05
3.37125e-05
2.8711e-05
2.43312e-05
2.07574e-05
1.74883e-05
1.49703e-05
1.26299e-05
1.08212e-05
9.26933e-06
8.07646e-06
9.67898e-06
4.44823e-05
0.00019086
0.000496245
0.000392506
5.75464e-05
6.03617e-05
6.58064e-05
6.66412e-05
7.2622e-05
7.98584e-05
8.75404e-05
9.59917e-05
0.000105656
0.000117271
0.000131272
0.000122327
0.000104157
8.79374e-05
7.47726e-05
6.4008e-05
5.46837e-05
4.66586e-05
3.97105e-05
3.37804e-05
2.87474e-05
2.43502e-05
2.07535e-05
1.74847e-05
1.49452e-05
1.26204e-05
1.07912e-05
9.27032e-06
8.24083e-06
1.27952e-05
6.47356e-05
0.0002359
0.000528417
0.000376746
5.95421e-05
6.31856e-05
6.84149e-05
6.94016e-05
7.55015e-05
8.32154e-05
9.12709e-05
0.000100185
0.000110308
0.00012249
0.000137173
0.000122344
0.000104313
8.82176e-05
7.51521e-05
6.43305e-05
5.49302e-05
4.68451e-05
3.98489e-05
3.38835e-05
2.88145e-05
2.43989e-05
2.07796e-05
1.75082e-05
1.49484e-05
1.26328e-05
1.07834e-05
9.26838e-06
8.33825e-06
1.47033e-05
7.71586e-05
0.000272041
0.000570007
0.000359554
6.15727e-05
6.60315e-05
7.10798e-05
7.22489e-05
7.84263e-05
8.66267e-05
9.50302e-05
0.000104399
0.000114945
0.000127653
0.000142436
0.000122441
0.000104545
8.85686e-05
7.5599e-05
6.46843e-05
5.52135e-05
4.70728e-05
4.00309e-05
3.4031e-05
2.89307e-05
2.44959e-05
2.08536e-05
1.75735e-05
1.49939e-05
1.26775e-05
1.08096e-05
9.28184e-06
8.35031e-06
1.49759e-05
8.2022e-05
0.000300364
0.000629908
0.000351273
6.39774e-05
6.94065e-05
7.43432e-05
7.58536e-05
8.2129e-05
9.09531e-05
9.9754e-05
0.000109681
0.000120709
0.000133982
0.000142295
0.000122458
0.000104701
8.8851e-05
7.5948e-05
6.49524e-05
5.54178e-05
4.72291e-05
4.01439e-05
3.41119e-05
2.89844e-05
2.45356e-05
2.08732e-05
1.75904e-05
1.4992e-05
1.26823e-05
1.07905e-05
9.28294e-06
8.58754e-06
1.9116e-05
0.000102617
0.000353742
0.000707731
0.000347598
6.60309e-05
7.21568e-05
7.70217e-05
7.88268e-05
8.51208e-05
9.4475e-05
0.000103536
0.000113937
0.000125334
0.000139085
0.000142121
0.000122446
0.000104833
8.91127e-05
7.62509e-05
6.5181e-05
5.55851e-05
4.73557e-05
4.02344e-05
3.4181e-05
2.90278e-05
2.45714e-05
2.0888e-05
1.76079e-05
1.49889e-05
1.26897e-05
1.07785e-05
9.30077e-06
8.89549e-06
2.38939e-05
0.000123379
0.000410718
0.000797943
0.000344443
6.82067e-05
7.47651e-05
7.98051e-05
8.18037e-05
8.81804e-05
9.80451e-05
0.000107367
0.000118268
0.000130048
0.00014432
0.000141935
0.000122419
0.000104937
8.93423e-05
7.6487e-05
6.53528e-05
5.57037e-05
4.74392e-05
4.02846e-05
3.42152e-05
2.90376e-05
2.45792e-05
2.08751e-05
1.76027e-05
1.49643e-05
1.2679e-05
1.0753e-05
9.32534e-06
9.53966e-06
3.18806e-05
0.000152398
0.000487311
0.000908047
0.000343779
7.03832e-05
7.73111e-05
8.26312e-05
8.48231e-05
9.12797e-05
0.00010164
0.000111203
0.000122622
0.000134788
0.000149621
0.000141802
0.000122445
0.000105105
8.96392e-05
7.67526e-05
6.55606e-05
5.58617e-05
4.75656e-05
4.03782e-05
3.42933e-05
2.90915e-05
2.46274e-05
2.09037e-05
1.76321e-05
1.49755e-05
1.26964e-05
1.07529e-05
9.34037e-06
9.73742e-06
3.54157e-05
0.000167805
0.000558793
0.00106372
0.00035037
7.25929e-05
7.98368e-05
8.5515e-05
8.79282e-05
9.44576e-05
0.000105348
0.000115137
0.000127128
0.000139706
0.000155175
0.000141609
0.000122415
0.000105224
8.98938e-05
7.69434e-05
6.57017e-05
5.59596e-05
4.76383e-05
4.04234e-05
3.43281e-05
2.91055e-05
2.46408e-05
2.08994e-05
1.76333e-05
1.49601e-05
1.26908e-05
1.07349e-05
9.38063e-06
1.06266e-05
4.53812e-05
0.000200781
0.000657502
0.00121896
0.000364403
7.49125e-05
8.23248e-05
8.85422e-05
9.10731e-05
9.77538e-05
0.000109155
0.000119166
0.000131742
0.000144702
0.00016077
0.0001414
0.000122372
0.000105331
9.01129e-05
7.71017e-05
6.58178e-05
5.60379e-05
4.76969e-05
4.04574e-05
3.43562e-05
2.91138e-05
2.4652e-05
2.08929e-05
1.76347e-05
1.49447e-05
1.26866e-05
1.07191e-05
9.43316e-06
1.16792e-05
5.59272e-05
0.000235095
0.00076613
0.0013699
0.000382831
7.73164e-05
8.47225e-05
9.17143e-05
9.42105e-05
0.000101157
0.000113007
0.000123252
0.000136394
0.000149704
0.00016217
0.000141179
0.000122319
0.00010543
9.0298e-05
7.72327e-05
6.59135e-05
5.60997e-05
4.77439e-05
4.04819e-05
3.4378e-05
2.91167e-05
2.46598e-05
2.08835e-05
1.76338e-05
1.49279e-05
1.26804e-05
1.07038e-05
9.50505e-06
1.30998e-05
6.84975e-05
0.000275312
0.00089058
0.00151714
0.000407073
7.97899e-05
8.70491e-05
9.4965e-05
9.73722e-05
0.000104637
0.000116908
0.000127382
0.000141081
0.000154718
0.000161775
0.000140967
0.000122273
0.000105536
9.04594e-05
7.7344e-05
6.59935e-05
5.61482e-05
4.77803e-05
4.0497e-05
3.43922e-05
2.91127e-05
2.46614e-05
2.08687e-05
1.76276e-05
1.4907e-05
1.26698e-05
1.06881e-05
9.62212e-06
1.52777e-05
8.4681e-05
0.000324768
0.00103138
0.00165764
0.000434333
8.24025e-05
8.93396e-05
9.83867e-05
0.000100577
0.000108309
0.000120943
0.000131699
0.000145954
0.00015995
0.00016131
0.000140694
0.000122175
0.000105596
9.05553e-05
7.73978e-05
6.60239e-05
5.61535e-05
4.77795e-05
4.04797e-05
3.4379e-05
2.90846e-05
2.46429e-05
2.08362e-05
1.76066e-05
1.48738e-05
1.26488e-05
1.06713e-05
9.8391e-06
1.88689e-05
0.000106237
0.000386603
0.00119339
0.00178947
0.000466288
8.50499e-05
9.16673e-05
0.000101841
0.000103816
0.000112106
0.000125075
0.000136127
0.000150918
0.000165258
0.000160844
0.000140427
0.000122087
0.000105671
9.0642e-05
7.74499e-05
6.60596e-05
5.61683e-05
4.77924e-05
4.04776e-05
3.43828e-05
2.90742e-05
2.46418e-05
2.08215e-05
1.7601e-05
1.48561e-05
1.26408e-05
1.06634e-05
1.0022e-05
2.19283e-05
0.000123803
0.000446692
0.00136157
0.0019093
0.000498718
8.76516e-05
9.39877e-05
0.000105294
0.000107099
0.000116013
0.000129277
0.000140654
0.000155965
0.000170668
0.000160335
0.000140114
0.000121955
0.000105697
9.06584e-05
7.74343e-05
6.60306e-05
5.61216e-05
4.77461e-05
4.04202e-05
3.43335e-05
2.90144e-05
2.45939e-05
2.07636e-05
1.75555e-05
1.48034e-05
1.26015e-05
1.06652e-05
1.07492e-05
3.1286e-05
0.000162693
0.000545427
0.00155819
0.00201504
0.000529567
9.02619e-05
9.62243e-05
0.000108763
0.000110354
0.000119987
0.000133458
0.000145191
0.000160987
0.000176056
0.000159829
0.000139814
0.000121841
0.000105722
9.06794e-05
7.74313e-05
6.60214e-05
5.60988e-05
4.77282e-05
4.03923e-05
3.4316e-05
2.8986e-05
2.45775e-05
2.07364e-05
1.75387e-05
1.47778e-05
1.25865e-05
1.06711e-05
1.12058e-05
3.72424e-05
0.000187739
0.000630953
0.00170821
0.00211904
0.000566635
9.29615e-05
9.85239e-05
0.000112341
0.000113649
0.000124098
0.000137657
0.000149794
0.000166008
0.000181173
0.000159262
0.000139465
0.000121688
0.000105688
9.06574e-05
7.73943e-05
6.5986e-05
5.60562e-05
4.76952e-05
4.03531e-05
3.42895e-05
2.89514e-05
2.45552e-05
2.07057e-05
1.75173e-05
1.47497e-05
1.25687e-05
1.0691e-05
1.19446e-05
4.60478e-05
0.000221291
0.000737636
0.001888
0.00221192
0.000599207
9.57324e-05
0.000101015
0.000115979
0.00011708
0.00012836
0.000141954
0.00015452
0.000171124
0.000180277
0.000158614
0.000139041
0.000121463
0.000105558
9.05512e-05
7.72785e-05
6.58767e-05
5.59454e-05
4.75977e-05
4.02557e-05
3.42079e-05
2.88674e-05
2.44869e-05
2.06335e-05
1.74588e-05
1.46901e-05
1.25286e-05
1.07989e-05
1.4171e-05
6.58341e-05
0.000280265
0.000887607
0.00205816
0.00229166
0.000630004
9.8466e-05
0.000103491
0.000119606
0.000120545
0.000132635
0.000146196
0.00015919
0.000176147
0.000179428
0.000158014
0.000138665
0.000121283
0.000105452
9.04719e-05
7.71937e-05
6.58026e-05
5.58712e-05
4.75393e-05
4.01961e-05
3.41656e-05
2.88201e-05
2.44555e-05
2.05955e-05
1.74326e-05
1.46592e-05
1.25129e-05
1.08771e-05
1.569e-05
7.90756e-05
0.000326966
0.00104316
0.00221261
0.00236142
0.00065977
0.000101355
0.000106156
0.000123423
0.000124147
0.000137099
0.000150506
0.000163981
0.000181212
0.000178485
0.000157331
0.000138215
0.000121034
0.000105259
9.03197e-05
7.70433e-05
6.56688e-05
5.57436e-05
4.74317e-05
4.0093e-05
3.40826e-05
2.87371e-05
2.43903e-05
2.0528e-05
1.73789e-05
1.46063e-05
1.24871e-05
1.11298e-05
1.9675e-05
0.000106406
0.000404296
0.00123485
0.00238662
0.00242763
0.00068737
0.000104374
0.000109004
0.000127375
0.000127966
0.000141793
0.000155067
0.000169062
0.000186587
0.00017753
0.000156628
0.000137739
0.00012075
0.000105004
9.01078e-05
7.68332e-05
6.54754e-05
5.55587e-05
4.72669e-05
3.99369e-05
3.39472e-05
2.86068e-05
2.42796e-05
2.042e-05
1.7288e-05
1.45253e-05
1.2477e-05
1.19553e-05
2.94843e-05
0.000154806
0.000517244
0.00145637
0.0025413
0.00246661
0.000705237
0.000107368
0.000111875
0.000131334
0.000131802
0.000146491
0.000159593
0.000174128
0.000191928
0.000176631
0.000155978
0.000137316
0.000120514
0.000104776
8.99226e-05
7.66519e-05
6.53123e-05
5.5404e-05
4.7133e-05
3.98103e-05
3.38414e-05
2.85041e-05
2.41957e-05
2.03372e-05
1.72205e-05
1.44664e-05
1.24941e-05
1.28433e-05
3.90028e-05
0.000194506
0.000619191
0.00163377
0.00267059
0.00251662
0.00072796
0.000110557
0.000114914
0.000135441
0.000135722
0.000151393
0.000164201
0.000179377
0.000197367
0.000175636
0.000155255
0.000136837
0.000120216
0.000104496
8.97007e-05
7.6445e-05
6.51318e-05
5.52391e-05
4.6993e-05
3.9682e-05
3.37348e-05
2.84039e-05
2.41129e-05
2.02583e-05
1.71544e-05
1.44127e-05
1.25396e-05
1.40573e-05
5.08766e-05
0.000237618
0.000730711
0.00181207
0.00281794
0.0025556
0.000742579
0.000113937
0.000118261
0.000139645
0.000139823
0.000156548
0.000169064
0.000184883
0.000196889
0.000174577
0.000154484
0.000136323
0.000119867
0.00010418
8.94545e-05
7.62229e-05
6.49425e-05
5.50711e-05
4.6853e-05
3.95575e-05
3.36331e-05
2.8311e-05
2.40374e-05
2.0188e-05
1.70965e-05
1.43688e-05
1.26079e-05
1.54119e-05
6.30567e-05
0.000277687
0.000845423
0.00196046
0.00295888
0.00261736
0.000772286
0.000117236
0.000121534
0.00014356
0.000143786
0.000161462
0.000173612
0.000189988
0.000195568
0.000173569
0.00015376
0.00013585
0.000119542
0.000103892
8.92359e-05
7.60297e-05
6.47835e-05
5.49329e-05
4.67438e-05
3.94618e-05
3.35606e-05
2.82448e-05
2.39882e-05
2.01415e-05
1.70609e-05
1.43425e-05
1.26741e-05
1.65418e-05
7.32406e-05
0.000312108
0.00096169
0.00215022
0.00310704
0.00265098
0.000790744
0.000120606
0.000124849
0.00014752
0.000147881
0.000166549
0.000178262
0.000195225
0.000194049
0.000172375
0.00015286
0.000135205
0.000119032
0.000103428
8.8857e-05
7.5685e-05
6.44783e-05
5.46599e-05
4.65033e-05
3.92487e-05
3.33733e-05
2.80774e-05
2.38414e-05
2.00094e-05
1.69485e-05
1.42919e-05
1.31908e-05
2.29703e-05
0.000113435
0.000410123
0.00115516
0.00234161
0.00323344
0.00265757
0.000798802
0.000124111
0.000128576
0.000151774
0.000152426
0.000172062
0.000183308
0.000200753
0.000192415
0.000171091
0.000151887
0.0001345
0.000118461
0.000102923
8.84511e-05
7.53255e-05
6.41677e-05
5.43895e-05
4.6272e-05
3.9049e-05
3.32045e-05
2.79301e-05
2.37181e-05
1.99007e-05
1.68625e-05
1.42761e-05
1.38052e-05
2.94391e-05
0.000146651
0.000489115
0.00133227
0.00248587
0.00331785
0.0026639
0.000803969
0.00012779
0.000132139
0.00015612
0.000157099
0.000177548
0.000188274
0.00020611
0.000190798
0.000169817
0.000150919
0.000133788
0.000117873
0.000102402
8.80285e-05
7.49499e-05
6.38407e-05
5.41032e-05
4.6024e-05
3.88336e-05
3.30186e-05
2.77674e-05
2.35781e-05
1.97778e-05
1.67666e-05
1.43093e-05
1.50339e-05
4.07498e-05
0.000194021
0.000591053
0.00153436
0.00266072
0.00342373
0.00268
0.000810439
0.000140005
0.000136574
0.000161041
0.000162329
0.000183364
0.000193503
0.000211385
0.000189133
0.000168499
0.000149907
0.000133029
0.000117229
0.000101832
8.75609e-05
7.45334e-05
6.34749e-05
5.37819e-05
4.57421e-05
3.85887e-05
3.28039e-05
2.75805e-05
2.3415e-05
1.9637e-05
1.66666e-05
1.44613e-05
1.74089e-05
5.89258e-05
0.000254271
0.000711154
0.0017539
0.00282202
0.00350835
0.00268572
0.000813578
0.000158145
0.000142178
0.000166562
0.000168309
0.000189735
0.000199247
0.00020922
0.000187323
0.000167065
0.000148798
0.000132182
0.0001165
0.000101199
8.70449e-05
7.40821e-05
6.30839e-05
5.34449e-05
4.5451e-05
3.83411e-05
3.25906e-05
2.73988e-05
2.32597e-05
1.95072e-05
1.659e-05
1.47256e-05
2.04713e-05
7.90161e-05
0.000309997
0.000823066
0.00190264
0.0029672
0.00358371
0.0027018
0.000820758
0.000161802
0.000147121
0.000172414
0.000174716
0.000196329
0.000205201
0.00020702
0.000185483
0.000165601
0.000147659
0.000131297
0.000115727
0.000100529
8.64955e-05
7.3602e-05
6.26669e-05
5.30859e-05
4.51391e-05
3.80762e-05
3.23608e-05
2.72036e-05
2.30913e-05
1.93698e-05
1.65345e-05
1.52535e-05
2.55196e-05
0.000107282
0.000377865
0.000954604
0.00206666
0.00313399
0.00364114
0.00271038
0.000823966
0.000163759
0.000152575
0.000178833
0.000181688
0.000203252
0.00021148
0.000204775
0.000183598
0.000164093
0.000146472
0.000130354
0.000114889
9.98015e-05
8.58908e-05
7.30714e-05
6.22015e-05
5.26834e-05
4.47863e-05
3.77649e-05
3.20947e-05
2.69784e-05
2.28952e-05
1.92177e-05
1.65366e-05
1.63903e-05
3.45824e-05
0.000148661
0.000464321
0.00111289
0.00222495
0.00328267
0.00367958
0.00270511
0.000822907
0.000166215
0.000157613
0.000184387
0.000187729
0.000208764
0.000216266
0.000202366
0.000181574
0.000162465
0.000145175
0.000129302
0.000113948
9.8991e-05
8.5217e-05
7.24853e-05
6.16904e-05
5.22456e-05
4.44035e-05
3.74431e-05
3.1808e-05
2.67357e-05
2.26922e-05
1.90762e-05
1.66489e-05
1.82891e-05
4.75082e-05
0.000197013
0.000556747
0.00128297
0.00237775
0.00341959
0.0037164
0.00269928
0.000819905
0.000168165
0.000164624
0.000192282
0.000196219
0.000216652
0.000221609
0.000199871
0.00017947
0.000160759
0.000143798
0.000128158
0.000112914
9.80997e-05
8.4468e-05
7.18316e-05
6.11165e-05
5.17525e-05
4.39688e-05
3.70764e-05
3.14837e-05
2.64514e-05
2.24562e-05
1.89386e-05
1.70367e-05
2.21324e-05
6.97314e-05
0.000264688
0.00067682
0.00149125
0.00253586
0.00355485
0.00373919
0.00269044
0.000815829
0.000161596
0.000173491
0.000201195
0.000205846
0.000225244
0.000218683
0.000197341
0.000177337
0.000159021
0.000142381
0.000126962
0.00011183
9.71675e-05
8.36814e-05
7.11466e-05
6.05152e-05
5.1237e-05
4.35147e-05
3.66947e-05
3.1145e-05
2.61665e-05
2.22173e-05
1.88634e-05
1.78585e-05
2.83832e-05
0.000100302
0.000341385
0.000807575
0.00170849
0.00269643
0.00367723
0.00376173
0.00267795
0.000808499
0.000170242
0.000183049
0.000211672
0.000216764
0.000234818
0.000215619
0.000194683
0.000175088
0.000157172
0.000140849
0.000125641
0.000110625
9.61295e-05
8.27977e-05
7.03756e-05
5.98355e-05
5.06528e-05
4.2998e-05
3.62593e-05
3.07575e-05
2.58506e-05
2.19758e-05
1.89434e-05
1.97496e-05
4.01606e-05
0.000147818
0.000441187
0.000969282
0.00195251
0.00286563
0.00379362
0.0037724
0.002662
0.000799131
0.000179987
0.000194144
0.000223774
0.000228975
0.00023433
0.000212418
0.0001919
0.000172727
0.000155213
0.000139201
0.000124189
0.000109301
9.4988e-05
8.18195e-05
6.95221e-05
5.90822e-05
5.00053e-05
4.24248e-05
3.57763e-05
3.03294e-05
2.55105e-05
2.17709e-05
1.94021e-05
2.37253e-05
6.06822e-05
0.00021471
0.000561334
0.00115548
0.00217954
0.00303544
0.00389906
0.00377777
0.00263924
0.000784997
0.00019096
0.000206937
0.000237493
0.000242499
0.000230696
0.000209169
0.000189066
0.000170313
0.000153187
0.000137467
0.000122621
0.000107873
9.37513e-05
8.07485e-05
6.85827e-05
5.82481e-05
4.92841e-05
4.17834e-05
3.5233e-05
2.98503e-05
2.51535e-05
2.17089e-05
2.08275e-05
3.23648e-05
9.75769e-05
0.000310493
0.000713096
0.00137751
0.00234222
0.0032038
0.00399188
0.00376981
0.00260995
0.000767038
0.000204505
0.000222566
0.000254137
0.000249171
0.000226935
0.000205808
0.000186125
0.000167795
0.000151048
0.0001356
0.000120892
0.000106301
9.23803e-05
7.95489e-05
6.7525e-05
5.73041e-05
4.84628e-05
4.10498e-05
3.46095e-05
2.93142e-05
2.48378e-05
2.21543e-05
2.49082e-05
5.18587e-05
0.00016446
0.000448127
0.000910691
0.00164801
0.00252713
0.00338227
0.00408267
0.00374738
0.00255984
0.000736199
0.000219192
0.000239448
0.000270452
0.000244948
0.000223102
0.000202393
0.000183134
0.000165227
0.000148843
0.000133644
0.000119049
0.000104629
9.09175e-05
7.82607e-05
6.63865e-05
5.62862e-05
4.75739e-05
4.02564e-05
3.39407e-05
2.87879e-05
2.47793e-05
2.39547e-05
3.46523e-05
8.96926e-05
0.000266561
0.000619185
0.00114039
0.00194396
0.00263532
0.00348467
0.0040977
0.00370819
0.00253062
0.000719077
0.000238419
0.000260577
0.000266159
0.000241339
0.000219824
0.000199475
0.000180574
0.000163017
0.000146922
0.000131897
0.000117389
0.000103122
8.95882e-05
7.70788e-05
6.53341e-05
5.53388e-05
4.67391e-05
3.95092e-05
3.33226e-05
2.84022e-05
2.53089e-05
2.8257e-05
5.35773e-05
0.000152027
0.0004041
0.000822049
0.00140269
0.00225692
0.00282483
0.00362313
0.0041451
0.0036391
0.00243199
0.00066299
0.000250723
0.000273534
0.000262499
0.000238229
0.000217005
0.000196966
0.00017837
0.000161106
0.000145244
0.000130345
0.000115918
0.000101782
8.83975e-05
7.60101e-05
6.43744e-05
5.44685e-05
4.59648e-05
3.88178e-05
3.27832e-05
2.82704e-05
2.68808e-05
3.66133e-05
8.51895e-05
0.000239458
0.000563623
0.00103622
0.00167109
0.00213571
0.00269284
0.00350532
0.00387481
0.00340683
0.00228574
0.000620652
1.70883e-05
1.50581e-05
1.45296e-05
1.42674e-05
1.4039e-05
1.40556e-05
1.43684e-05
1.49695e-05
1.58909e-05
1.71891e-05
1.89314e-05
2.12189e-05
2.40767e-05
2.77835e-05
3.16429e-05
3.61001e-05
4.11839e-05
3.94011e-05
3.19167e-05
2.60282e-05
2.13667e-05
1.77142e-05
1.47657e-05
1.256e-05
1.0624e-05
9.42901e-06
8.02546e-06
7.11215e-06
6.10264e-06
5.58843e-06
5.42117e-06
6.72292e-06
7.58966e-06
4.18954e-07
1.6266e-05
1.45045e-05
1.41639e-05
1.39456e-05
1.36957e-05
1.36802e-05
1.39482e-05
1.44834e-05
1.53144e-05
1.64921e-05
1.80742e-05
2.01439e-05
2.28077e-05
2.65097e-05
3.01605e-05
3.40359e-05
3.87959e-05
3.9219e-05
3.17907e-05
2.59334e-05
2.12918e-05
1.76405e-05
1.46993e-05
1.24707e-05
1.05415e-05
9.35475e-06
7.96665e-06
7.13194e-06
6.08366e-06
5.57633e-06
5.26882e-06
6.53142e-06
7.50791e-06
4.10904e-07
1.51637e-05
1.3706e-05
1.34225e-05
1.32339e-05
1.30188e-05
1.30214e-05
1.32872e-05
1.38003e-05
1.45868e-05
1.56936e-05
1.71723e-05
1.92731e-05
2.17606e-05
2.50042e-05
2.83872e-05
3.22734e-05
3.67049e-05
3.91173e-05
3.1727e-05
2.58871e-05
2.12543e-05
1.75975e-05
1.46574e-05
1.2403e-05
1.04784e-05
9.27433e-06
7.91181e-06
7.14916e-06
6.07613e-06
5.56766e-06
5.09909e-06
6.27018e-06
7.39588e-06
3.8987e-07
1.46084e-05
1.32254e-05
1.29399e-05
1.27697e-05
1.2578e-05
1.25831e-05
1.28336e-05
1.33169e-05
1.40556e-05
1.52026e-05
1.66036e-05
1.84206e-05
2.07388e-05