# vtk DataFile Version 2.0
track0
ASCII
DATASET POLYDATA
POINTS 8204 float
0.0624513 -0.666667 -0.0389216
0.0634193 -0.666667 -0.0391716
0.0643872 -0.666667 -0.0394217
0.0665167 -0.666667 -0.0399718
0.0675815 -0.666667 -0.0402468
0.0699319 -0.666667 -0.0408202
0.0711071 -0.666667 -0.0411069
0.0737039 -0.666667 -0.041689
0.0750023 -0.666667 -0.04198
0.077863 -0.666667 -0.0426016
0.0792933 -0.666667 -0.0429124
0.0824485 -0.666667 -0.0435559
0.0840261 -0.666667 -0.0438776
0.0875033 -0.666667 -0.0445525
0.089242 -0.666667 -0.0448899
0.093073 -0.666667 -0.0456003
0.0949885 -0.666667 -0.0459556
0.099214 -0.666667 -0.0466733
0.101327 -0.666667 -0.0470322
0.105984 -0.666667 -0.0477644
0.108313 -0.666667 -0.0481305
0.113445 -0.666667 -0.0488759
0.116011 -0.666667 -0.0492486
0.121657 -0.666667 -0.0500685
0.124479 -0.666667 -0.0504784
0.130706 -0.666667 -0.0512601
0.133819 -0.666667 -0.0516509
0.140681 -0.666667 -0.0523965
0.144112 -0.666667 -0.0527694
0.151663 -0.666667 -0.0535662
0.155438 -0.666667 -0.0539647
0.163756 -0.666667 -0.0547255
0.167915 -0.666667 -0.0551059
0.177077 -0.666667 -0.0557849
0.181658 -0.666667 -0.0561244
0.191741 -0.666667 -0.0568037
0.196783 -0.666667 -0.0571433
0.207464 -0.666667 -0.0576636
0.212805 -0.666667 -0.0579237
0.223486 -0.666667 -0.058444
0.228826 -0.666667 -0.0587041
0.239515 -0.666667 -0.0590136
0.24486 -0.666667 -0.0591683
0.255551 -0.666667 -0.0594238
0.260896 -0.666667 -0.0595516
0.271588 -0.666667 -0.059751
0.276934 -0.666667 -0.0598507
0.287627 -0.666667 -0.0598771
0.292974 -0.666667 -0.0598903
0.303668 -0.666667 -0.0599167
0.309015 -0.666667 -0.0599299
0.065452 -0.666667 -0.0396967
0.0665167 -0.666667 -0.0399718
0.0675815 -0.666667 -0.0402468
0.0699319 -0.666667 -0.0408202
0.0711071 -0.666667 -0.0411069
0.0737039 -0.666667 -0.041689
0.0750023 -0.666667 -0.04198
0.077863 -0.666667 -0.0426016
0.0792933 -0.666667 -0.0429124
0.0824485 -0.666667 -0.0435559
0.0840261 -0.666667 -0.0438776
0.0875033 -0.666667 -0.0445525
0.089242 -0.666667 -0.0448899
0.093073 -0.666667 -0.0456003
0.0949885 -0.666667 -0.0459556
0.099214 -0.666667 -0.0466733
0.101327 -0.666667 -0.0470322
0.105984 -0.666667 -0.0477644
0.108313 -0.666667 -0.0481305
0.113445 -0.666667 -0.0488759
0.116011 -0.666667 -0.0492486
0.121657 -0.666667 -0.0500685
0.124479 -0.666667 -0.0504784
0.130706 -0.666667 -0.0512601
0.133819 -0.666667 -0.0516509
0.140681 -0.666667 -0.0523965
0.144112 -0.666667 -0.0527694
0.151663 -0.666667 -0.0535662
0.155438 -0.666667 -0.0539647
0.163756 -0.666667 -0.0547255
0.167915 -0.666667 -0.0551059
0.177077 -0.666667 -0.0557849
0.181658 -0.666667 -0.0561244
0.191741 -0.666667 -0.0568037
0.196783 -0.666667 -0.0571433
0.207464 -0.666667 -0.0576636
0.212805 -0.666667 -0.0579237
0.223486 -0.666667 -0.058444
0.228826 -0.666667 -0.0587041
0.239515 -0.666667 -0.0590136
0.24486 -0.666667 -0.0591683
0.255551 -0.666667 -0.0594238
0.260896 -0.666667 -0.0595516
0.271588 -0.666667 -0.059751
0.276934 -0.666667 -0.0598507
0.287627 -0.666667 -0.0598771
0.292974 -0.666667 -0.0598903
0.303668 -0.666667 -0.0599167
0.309015 -0.666667 -0.0599299
0.319708 -0.666667 -0.0598792
0.325055 -0.666667 -0.0598539
0.0687567 -0.666667 -0.0405335
0.0699319 -0.666667 -0.0408202
0.0711071 -0.666667 -0.0411069
0.0737039 -0.666667 -0.041689
0.0750023 -0.666667 -0.04198
0.077863 -0.666667 -0.0426016
0.0792933 -0.666667 -0.0429124
0.0824485 -0.666667 -0.0435559
0.0840261 -0.666667 -0.0438776
0.0875033 -0.666667 -0.0445525
0.089242 -0.666667 -0.0448899
0.093073 -0.666667 -0.0456003
0.0949885 -0.666667 -0.0459556
0.099214 -0.666667 -0.0466733
0.101327 -0.666667 -0.0470322
0.105984 -0.666667 -0.0477644
0.108313 -0.666667 -0.0481305
0.113445 -0.666667 -0.0488759
0.116011 -0.666667 -0.0492486
0.121657 -0.666667 -0.0500685
0.124479 -0.666667 -0.0504784
0.130706 -0.666667 -0.0512601
0.133819 -0.666667 -0.0516509
0.140681 -0.666667 -0.0523965
0.144112 -0.666667 -0.0527694
0.151663 -0.666667 -0.0535662
0.155438 -0.666667 -0.0539647
0.163756 -0.666667 -0.0547255
0.167915 -0.666667 -0.0551059
0.177077 -0.666667 -0.0557849
0.181658 -0.666667 -0.0561244
0.191741 -0.666667 -0.0568037
0.196783 -0.666667 -0.0571433
0.207464 -0.666667 -0.0576636
0.212805 -0.666667 -0.0579237
0.223486 -0.666667 -0.058444
0.228826 -0.666667 -0.0587041
0.239515 -0.666667 -0.0590136
0.24486 -0.666667 -0.0591683
0.255551 -0.666667 -0.0594238
0.260896 -0.666667 -0.0595516
0.271588 -0.666667 -0.059751
0.276934 -0.666667 -0.0598507
0.287627 -0.666667 -0.0598771
0.292974 -0.666667 -0.0598903
0.303668 -0.666667 -0.0599167
0.309015 -0.666667 -0.0599299
0.319708 -0.666667 -0.0598792
0.325055 -0.666667 -0.0598539
0.335747 -0.666667 -0.0596835
0.341094 -0.666667 -0.0595984
0.0737039 -0.333333 -0.041689
0.0750023 -0.333333 -0.04198
0.0764327 -0.333333 -0.0422908
0.0792933 -0.333333 -0.0429124
0.0808709 -0.333333 -0.0432341
0.0840261 -0.333333 -0.0438776
0.0857647 -0.333333 -0.044215
0.089242 -0.333333 -0.0448899
0.0911575 -0.333333 -0.0452451
0.0949885 -0.333333 -0.0459556
0.0971013 -0.333333 -0.0463145
0.101327 -0.333333 -0.0470322
0.103655 -0.333333 -0.0473983
0.108313 -0.333333 -0.0481305
0.110879 -0.333333 -0.0485032
0.116011 -0.333333 -0.0492486
0.118834 -0.333333 -0.0496585
0.124479 -0.333333 -0.0504784
0.127592 -0.333333 -0.0508693
0.133819 -0.333333 -0.0516509
0.13725 -0.333333 -0.0520237
0.144112 -0.333333 -0.0527694
0.147887 -0.333333 -0.0531678
0.155438 -0.333333 -0.0539647
0.159597 -0.333333 -0.0543451
0.167915 -0.333333 -0.0551059
0.172496 -0.333333 -0.0554454
0.181658 -0.333333 -0.0561244
0.1867 -0.333333 -0.056464
0.196783 -0.333333 -0.0571433
0.202124 -0.333333 -0.0574034
0.212805 -0.333333 -0.0579237
0.218145 -0.333333 -0.0581838
0.228826 -0.333333 -0.0587041
0.234171 -0.333333 -0.0588588
0.24486 -0.333333 -0.0591683
0.250205 -0.333333 -0.0592961
0.260896 -0.333333 -0.0595516
0.266242 -0.333333 -0.0596513
0.276934 -0.333333 -0.0598507
0.282281 -0.333333 -0.0598639
0.292974 -0.333333 -0.0598903
0.298321 -0.333333 -0.0599035
0.309015 -0.333333 -0.0599299
0.314361 -0.333333 -0.0599045
0.325055 -0.333333 -0.0598539
0.330401 -0.333333 -0.0597687
0.341094 -0.333333 -0.0595984
0.346439 -0.333333 -0.0594969
0.357131 -0.333333 -0.059294
0.077863 -0.333333 -0.0426016
0.0792933 -0.333333 -0.0429124
0.0808709 -0.333333 -0.0432341
0.0840261 -0.333333 -0.0438776
0.0857647 -0.333333 -0.044215
0.089242 -0.333333 -0.0448899
0.0911575 -0.333333 -0.0452451
0.0949885 -0.333333 -0.0459556
0.0971013 -0.333333 -0.0463145
0.101327 -0.333333 -0.0470322
0.103655 -0.333333 -0.0473983
0.108313 -0.333333 -0.0481305
0.110879 -0.333333 -0.0485032
0.116011 -0.333333 -0.0492486
0.118834 -0.333333 -0.0496585
0.124479 -0.333333 -0.0504784
0.127592 -0.333333 -0.0508693
0.133819 -0.333333 -0.0516509
0.13725 -0.333333 -0.0520237
0.144112 -0.333333 -0.0527694
0.147887 -0.333333 -0.0531678
0.155438 -0.333333 -0.0539647
0.159597 -0.333333 -0.0543451
0.167915 -0.333333 -0.0551059
0.172496 -0.333333 -0.0554454
0.181658 -0.333333 -0.0561244
0.1867 -0.333333 -0.056464
0.196783 -0.333333 -0.0571433
0.202124 -0.333333 -0.0574034
0.212805 -0.333333 -0.0579237
0.218145 -0.333333 -0.0581838
0.228826 -0.333333 -0.0587041
0.234171 -0.333333 -0.0588588
0.24486 -0.333333 -0.0591683
0.250205 -0.333333 -0.0592961
0.260896 -0.333333 -0.0595516
0.266242 -0.333333 -0.0596513
0.276934 -0.333333 -0.0598507
0.282281 -0.333333 -0.0598639
0.292974 -0.333333 -0.0598903
0.298321 -0.333333 -0.0599035
0.309015 -0.333333 -0.0599299
0.314361 -0.333333 -0.0599045
0.325055 -0.333333 -0.0598539
0.330401 -0.333333 -0.0597687
0.341094 -0.333333 -0.0595984
0.346439 -0.333333 -0.0594969
0.357131 -0.333333 -0.059294
0.362476 -0.333333 -0.0591368
0.373165 -0.333333 -0.0588223
0.0824485 -0.333333 -0.0435559
0.0840261 -0.333333 -0.0438776
0.0857647 -0.333333 -0.044215
0.089242 -0.333333 -0.0448899
0.0911575 -0.333333 -0.0452451
0.0949885 -0.333333 -0.0459556
0.0971013 -0.333333 -0.0463145
0.101327 -0.333333 -0.0470322
0.103655 -0.333333 -0.0473983
0.108313 -0.333333 -0.0481305
0.110879 -0.333333 -0.0485032
0.116011 -0.333333 -0.0492486
0.118834 -0.333333 -0.0496585
0.124479 -0.333333 -0.0504784
0.127592 -0.333333 -0.0508693
0.133819 -0.333333 -0.0516509
0.13725 -0.333333 -0.0520237
0.144112 -0.333333 -0.0527694
0.147887 -0.333333 -0.0531678
0.155438 -0.333333 -0.0539647
0.159597 -0.333333 -0.0543451
0.167915 -0.333333 -0.0551059
0.172496 -0.333333 -0.0554454
0.181658 -0.333333 -0.0561244
0.1867 -0.333333 -0.056464
0.196783 -0.333333 -0.0571433
0.202124 -0.333333 -0.0574034
0.212805 -0.333333 -0.0579237
0.218145 -0.333333 -0.0581838
0.228826 -0.333333 -0.0587041
0.234171 -0.333333 -0.0588588
0.24486 -0.333333 -0.0591683
0.250205 -0.333333 -0.0592961
0.260896 -0.333333 -0.0595516
0.266242 -0.333333 -0.0596513
0.276934 -0.333333 -0.0598507
0.282281 -0.333333 -0.0598639
0.292974 -0.333333 -0.0598903
0.298321 -0.333333 -0.0599035
0.309015 -0.333333 -0.0599299
0.314361 -0.333333 -0.0599045
0.325055 -0.333333 -0.0598539
0.330401 -0.333333 -0.0597687
0.341094 -0.333333 -0.0595984
0.346439 -0.333333 -0.0594969
0.357131 -0.333333 -0.059294
0.362476 -0.333333 -0.0591368
0.373165 -0.333333 -0.0588223
0.378509 -0.333333 -0.0586502
0.389197 -0.333333 -0.058306
0.0875033 -0.333333 -0.0445525
0.089242 -0.333333 -0.0448899
0.0911575 -0.333333 -0.0452451
0.0949885 -0.333333 -0.0459556
0.0971013 -0.333333 -0.0463145
0.101327 -0.333333 -0.0470322
0.103655 -0.333333 -0.0473983
0.108313 -0.333333 -0.0481305
0.110879 -0.333333 -0.0485032
0.116011 -0.333333 -0.0492486
0.118834 -0.333333 -0.0496585
0.124479 -0.333333 -0.0504784
0.127592 -0.333333 -0.0508693
0.133819 -0.333333 -0.0516509
0.13725 -0.333333 -0.0520237
0.144112 -0.333333 -0.0527694
0.147887 -0.333333 -0.0531678
0.155438 -0.333333 -0.0539647
0.159597 -0.333333 -0.0543451
0.167915 -0.333333 -0.0551059
0.172496 -0.333333 -0.0554454
0.181658 -0.333333 -0.0561244
0.1867 -0.333333 -0.056464
0.196783 -0.333333 -0.0571433
0.202124 -0.333333 -0.0574034
0.212805 -0.333333 -0.0579237
0.218145 -0.333333 -0.0581838
[...]
POINT_DATA 8204
 FIELD attributes 2
p 1 8204 float
386.425 371.011 355.598 275.917 236.077 146.093 101.101 58.5827 37.3233 11.1247 -1.97465 -42.0889 -62.146 -101.757 -121.562 -173.988 -200.201 -247.671 -271.406 -295.048 -306.869 -320.642 -327.528 -389.037 -419.791 -489.892 -524.942 -530.938 -533.936 -559.754 -572.663 -628.977 -657.135 -677.076 -687.046 -702.386 -710.056 -715.874 -718.784 -743.194 -755.399 -776.14 -786.511 -772.06 -764.835 -783.69 -793.117 -789.71 -788.007 -775.351 -769.023
315.758 275.917 236.077 146.093 101.101 58.5827 37.3233 11.1247 -1.97465 -42.0889 -62.146 -101.757 -121.562 -173.988 -200.201 -247.671 -271.406 -295.048 -306.869 -320.642 -327.528 -389.037 -419.791 -489.892 -524.942 -530.938 -533.936 -559.754 -572.663 -628.977 -657.135 -677.076 -687.046 -702.386 -710.056 -715.874 -718.784 -743.194 -755.399 -776.14 -786.511 -772.06 -764.835 -783.69 -793.117 -789.71 -788.007 -775.351 -769.023 -786.569 -795.342
191.085 146.093 101.101 58.5827 37.3233 11.1247 -1.97465 -42.0889 -62.146 -101.757 -121.562 -173.988 -200.201 -247.671 -271.406 -295.048 -306.869 -320.642 -327.528 -389.037 -419.791 -489.892 -524.942 -530.938 -533.936 -559.754 -572.663 -628.977 -657.135 -677.076 -687.046 -702.386 -710.056 -715.874 -718.784 -743.194 -755.399 -776.14 -786.511 -772.06 -764.835 -783.69 -793.117 -789.71 -788.007 -775.351 -769.023 -786.569 -795.342 -789.882 -787.152
58.5827 37.3233 24.224 -1.97465 -22.0318 -62.146 -81.9513 -121.562 -147.775 -200.201 -223.936 -271.406 -283.227 -306.869 -313.756 -327.528 -358.283 -419.791 -454.841 -524.942 -527.94 -533.936 -546.845 -572.663 -600.82 -657.135 -667.105 -687.046 -694.716 -710.056 -712.965 -718.784 -730.989 -755.399 -765.77 -786.511 -779.285 -764.835 -774.262 -793.117 -791.414 -788.007 -781.679 -769.023 -777.796 -795.342 -792.612 -787.152 -780.863 -768.284
11.1247 -1.97465 -22.0318 -62.146 -81.9513 -121.562 -147.775 -200.201 -223.936 -271.406 -283.227 -306.869 -313.756 -327.528 -358.283 -419.791 -454.841 -524.942 -527.94 -533.936 -546.845 -572.663 -600.82 -657.135 -667.105 -687.046 -694.716 -710.056 -712.965 -718.784 -730.989 -755.399 -765.77 -786.511 -779.285 -764.835 -774.262 -793.117 -791.414 -788.007 -781.679 -769.023 -777.796 -795.342 -792.612 -787.152 -780.863 -768.284 -759.388 -741.597
-42.0889 -62.146 -81.9513 -121.562 -147.775 -200.201 -223.936 -271.406 -283.227 -306.869 -313.756 -327.528 -358.283 -419.791 -454.841 -524.942 -527.94 -533.936 -546.845 -572.663 -600.82 -657.135 -667.105 -687.046 -694.716 -710.056 -712.965 -718.784 -730.989 -755.399 -765.77 -786.511 -779.285 -764.835 -774.262 -793.117 -791.414 -788.007 -781.679 -769.023 -777.796 -795.342 -792.612 -787.152 -780.863 -768.284 -759.388 -741.597 -728.308 -701.73
-101.757 -121.562 -147.775 -200.201 -223.936 -271.406 -283.227 -306.869 -313.756 -327.528 -358.283 -419.791 -454.841 -524.942 -527.94 -533.936 -546.845 -572.663 -600.82 -657.135 -667.105 -687.046 -694.716 -710.056 -712.965 -718.784 -730.989 -755.399 -765.77 -786.511 -779.285 -764.835 -774.262 -793.117 -791.414 -788.007 -781.679 -769.023 -777.796 -795.342 -792.612 -787.152 -780.863 -768.284 -759.388 -741.597 -728.308 -701.73 -705.17 -712.051
-173.988 -200.201 -223.936 -271.406 -283.227 -306.869 -313.756 -327.528 -358.283 -419.791 -454.841 -524.942 -527.94 -533.936 -546.845 -572.663 -600.82 -657.135 -667.105 -687.046 -694.716 -710.056 -712.965 -718.784 -730.989 -755.399 -765.77 -786.511 -779.285 -764.835 -774.262 -793.117 -791.414 -788.007 -781.679 -769.023 -777.796 -795.342 -792.612 -787.152 -780.863 -768.284 -759.388 -741.597 -728.308 -701.73 -705.17 -712.051 -714.781 -720.241
-247.671 -271.406 -283.227 -306.869 -313.756 -327.528 -358.283 -419.791 -454.841 -524.942 -527.94 -533.936 -546.845 -572.663 -600.82 -657.135 -667.105 -687.046 -694.716 -710.056 -712.965 -718.784 -730.989 -755.399 -765.77 -786.511 -779.285 -764.835 -774.262 -793.117 -791.414 -788.007 -781.679 -769.023 -777.796 -795.342 -792.612 -787.152 -780.863 -768.284 -759.388 -741.597 -728.308 -701.73 -705.17 -712.051 -714.781 -720.241 -710.619 -691.373
-295.048 -306.869 -313.756 -327.528 -358.283 -419.791 -454.841 -524.942 -527.94 -533.936 -546.845 -572.663 -600.82 -657.135 -667.105 -687.046 -694.716 -710.056 -712.965 -718.784 -730.989 -755.399 -765.77 -786.511 -779.285 -764.835 -774.262 -793.117 -791.414 -788.007 -781.679 -769.023 -777.796 -795.342 -792.612 -787.152 -780.863 -768.284 -759.388 -741.597 -728.308 -701.73 -705.17 -712.051 -714.781 -720.241 -710.619 -691.373 -678.492 -652.729
-320.642 -327.528 -358.283 -419.791 -454.841 -524.942 -527.94 -533.936 -546.845 -572.663 -600.82 -657.135 -667.105 -687.046 -694.716 -710.056 -712.965 -718.784 -730.989 -755.399 -765.77 -786.511 -779.285 -764.835 -774.262 -793.117 -791.414 -788.007 -781.679 -769.023 -777.796 -795.342 -792.612 -787.152 -780.863 -768.284 -759.388 -741.597 -728.308 -701.73 -705.17 -712.051 -714.781 -720.241 -710.619 -691.373 -678.492 -652.729 -645.689 -631.607
-389.037 -419.791 -454.841 -524.942 -527.94 -533.936 -546.845 -572.663 -600.82 -657.135 -667.105 -687.046 -694.716 -710.056 -712.965 -718.784 -730.989 -755.399 -765.77 -786.511 -779.285 -764.835 -774.262 -793.117 -791.414 -788.007 -781.679 -769.023 -777.796 -795.342 -792.612 -787.152 -780.863 -768.284 -759.388 -741.597 -728.308 -701.73 -705.17 -712.051 -714.781 -720.241 -710.619 -691.373 -678.492 -652.729 -645.689 -631.607 -628.227 -621.467
-489.892 -524.942 -527.94 -533.936 -546.845 -572.663 -600.82 -657.135 -667.105 -687.046 -694.716 -710.056 -712.965 -718.784 -730.989 -755.399 -765.77 -786.511 -779.285 -764.835 -774.262 -793.117 -791.414 -788.007 -781.679 -769.023 -777.796 -795.342 -792.612 -787.152 -780.863 -768.284 -759.388 -741.597 -728.308 -701.73 -705.17 -712.051 -714.781 -720.241 -710.619 -691.373 -678.492 -652.729 -645.689 -631.607 -628.227 -621.467 -612.956 -595.933
-530.938 -533.936 -546.845 -572.663 -600.82 -657.135 -667.105 -687.046 -694.716 -710.056 -712.965 -718.784 -730.989 -755.399 -765.77 -786.511 -779.285 -764.835 -774.262 -793.117 -791.414 -788.007 -781.679 -769.023 -777.796 -795.342 -792.612 -787.152 -780.863 -768.284 -759.388 -741.597 -728.308 -701.73 -705.17 -712.051 -714.781 -720.241 -710.619 -691.373 -678.492 -652.729 -645.689 -631.607 -628.227 -621.467 -612.956 -595.933 -587.327 -570.114
-559.754 -572.663 -600.82 -657.135 -667.105 -687.046 -694.716 -710.056 -712.965 -718.784 -730.989 -755.399 -765.77 -786.511 -779.285 -764.835 -774.262 -793.117 -791.414 -788.007 -781.679 -769.023 -777.796 -795.342 -792.612 -787.152 -780.863 -768.284 -759.388 -741.597 -728.308 -701.73 -705.17 -712.051 -714.781 -720.241 -710.619 -691.373 -678.492 -652.729 -645.689 -631.607 -628.227 -621.467 -612.956 -595.933 -587.327 -570.114 -562.237 -546.483
-628.977 -657.135 -667.105 -687.046 -694.716 -710.056 -712.965 -718.784 -730.989 -755.399 -765.77 -786.511 -779.285 -764.835 -774.262 -793.117 -791.414 -788.007 -781.679 -769.023 -777.796 -795.342 -792.612 -787.152 -780.863 -768.284 -759.388 -741.597 -728.308 -701.73 -705.17 -712.051 -714.781 -720.241 -710.619 -691.373 -678.492 -652.729 -645.689 -631.607 -628.227 -621.467 -612.956 -595.933 -587.327 -570.114 -562.237 -546.483 -536.758 -517.307
-677.076 -687.046 -694.716 -710.056 -712.965 -718.784 -730.989 -755.399 -765.77 -786.511 -779.285 -764.835 -774.262 -793.117 -791.414 -788.007 -781.679 -769.023 -777.796 -795.342 -792.612 -787.152 -780.863 -768.284 -759.388 -741.597 -728.308 -701.73 -705.17 -712.051 -714.781 -720.241 -710.619 -691.373 -678.492 -652.729 -645.689 -631.607 -628.227 -621.467 -612.956 -595.933 -587.327 -570.114 -562.237 -546.483 -536.758 -517.307 -509.754 -494.646
-702.386 -710.056 -712.965 -718.784 -730.989 -755.399 -765.77 -786.511 -779.285 -764.835 -774.262 -793.117 -791.414 -788.007 -781.679 -769.023 -777.796 -795.342 -792.612 -787.152 -780.863 -768.284 -759.388 -741.597 -728.308 -701.73 -705.17 -712.051 -714.781 -720.241 -710.619 -691.373 -678.492 -652.729 -645.689 -631.607 -628.227 -621.467 -612.956 -595.933 -587.327 -570.114 -562.237 -546.483 -536.758 -517.307 -509.754 -494.646 -484.608 -464.531
-715.874 -718.784 -730.989 -755.399 -765.77 -786.511 -779.285 -764.835 -774.262 -793.117 -791.414 -788.007 -781.679 -769.023 -777.796 -795.342 -792.612 -787.152 -780.863 -768.284 -759.388 -741.597 -728.308 -701.73 -705.17 -712.051 -714.781 -720.241 -710.619 -691.373 -678.492 -652.729 -645.689 -631.607 -628.227 -621.467 -612.956 -595.933 -587.327 -570.114 -562.237 -546.483 -536.758 -517.307 -509.754 -494.646 -484.608 -464.531 -453.723 -432.107
-743.194 -755.399 -765.77 -786.511 -779.285 -764.835 -774.262 -793.117 -791.414 -788.007 -781.679 -769.023 -777.796 -795.342 -792.612 -787.152 -780.863 -768.284 -759.388 -741.597 -728.308 -701.73 -705.17 -712.051 -714.781 -720.241 -710.619 -691.373 -678.492 -652.729 -645.689 -631.607 -628.227 -621.467 -612.956 -595.933 -587.327 -570.114 -562.237 -546.483 -536.758 -517.307 -509.754 -494.646 -484.608 -464.531 -453.723 -432.107 -428.595 -421.57
-776.14 -786.511 -779.285 -764.835 -774.262 -793.117 -791.414 -788.007 -781.679 -769.023 -777.796 -795.342 -792.612 -787.152 -780.863 -768.284 -759.388 -741.597 -728.308 -701.73 -705.17 -712.051 -714.781 -720.241 -710.619 -691.373 -678.492 -652.729 -645.689 -631.607 -628.227 -621.467 -612.956 -595.933 -587.327 -570.114 -562.237 -546.483 -536.758 -517.307 -509.754 -494.646 -484.608 -464.531 -453.723 -432.107 -428.595 -421.57 -412.466 -394.259
-772.06 -764.835 -774.262 -793.117 -791.414 -788.007 -781.679 -769.023 -777.796 -795.342 -792.612 -787.152 -780.863 -768.284 -759.388 -741.597 -728.308 -701.73 -705.17 -712.051 -714.781 -720.241 -710.619 -691.373 -678.492 -652.729 -645.689 -631.607 -628.227 -621.467 -612.956 -595.933 -587.327 -570.114 -562.237 -546.483 -536.758 -517.307 -509.754 -494.646 -484.608 -464.531 -453.723 -432.107 -428.595 -421.57 -412.466 -394.259 -384.14 -363.902
-783.69 -793.117 -791.414 -788.007 -781.679 -769.023 -777.796 -795.342 -792.612 -787.152 -780.863 -768.284 -759.388 -741.597 -728.308 -701.73 -705.17 -712.051 -714.781 -720.241 -710.619 -691.373 -678.492 -652.729 -645.689 -631.607 -628.227 -621.467 -612.956 -595.933 -587.327 -570.114 -562.237 -546.483 -536.758 -517.307 -509.754 -494.646 -484.608 -464.531 -453.723 -432.107 -428.595 -421.57 -412.466 -394.259 -384.14 -363.902 -357.485 -344.651
-789.71 -788.007 -781.679 -769.023 -777.796 -795.342 -792.612 -787.152 -780.863 -768.284 -759.388 -741.597 -728.308 -701.73 -705.17 -712.051 -714.781 -720.241 -710.619 -691.373 -678.492 -652.729 -645.689 -631.607 -628.227 -621.467 -612.956 -595.933 -587.327 -570.114 -562.237 -546.483 -536.758 -517.307 -509.754 -494.646 -484.608 -464.531 -453.723 -432.107 -428.595 -421.57 -412.466 -394.259 -384.14 -363.902 -357.485 -344.651 -328.987 -297.659
-775.351 -769.023 -777.796 -795.342 -792.612 -787.152 -780.863 -768.284 -759.388 -741.597 -728.308 -701.73 -705.17 -712.051 -714.781 -720.241 -710.619 -691.373 -678.492 -652.729 -645.689 -631.607 -628.227 -621.467 -612.956 -595.933 -587.327 -570.114 -562.237 -546.483 -536.758 -517.307 -509.754 -494.646 -484.608 -464.531 -453.723 -432.107 -428.595 -421.57 -412.466 -394.259 -384.14 -363.902 -357.485 -344.651 -328.987 -297.659 -279.969 -244.59
-786.569 -795.342 -792.612 -787.152 -780.863 -768.284 -759.388 -741.597 -728.308 -701.73 -705.17 -712.051 -714.781 -720.241 -710.619 -691.373 -678.492 -652.729 -645.689 -631.607 -628.227 -621.467 -612.956 -595.933 -587.327 -570.114 -562.237 -546.483 -536.758 -517.307 -509.754 -494.646 -484.608 -464.531 -453.723 -432.107 -428.595 -421.57 -412.466 -394.259 -384.14 -363.902 -357.485 -344.651 -328.987 -297.659 -279.969 -244.59 -235.056 -215.988
-789.882 -787.152 -780.863 -768.284 -759.388 -741.597 -728.308 -701.73 -705.17 -712.051 -714.781 -720.241 -710.619 -691.373 -678.492 -652.729 -645.689 -631.607 -628.227 -621.467 -612.956 -595.933 -587.327 -570.114 -562.237 -546.483 -536.758 -517.307 -509.754 -494.646 -484.608 -464.531 -453.723 -432.107 -428.595 -421.57 -412.466 -394.259 -384.14 -363.902 -357.485 -344.651 -328.987 -297.659 -279.969 -244.59 -235.056 -215.988 -211.367 -202.126
-774.573 -768.284 -759.388 -741.597 -728.308 -701.73 -705.17 -712.051 -714.781 -720.241 -710.619 -691.373 -678.492 -652.729 -645.689 -631.607 -628.227 -621.467 -612.956 -595.933 -587.327 -570.114 -562.237 -546.483 -536.758 -517.307 -509.754 -494.646 -484.608 -464.531 -453.723 -432.107 -428.595 -421.57 -412.466 -394.259 -384.14 -363.902 -357.485 -344.651 -328.987 -297.659 -279.969 -244.59 -235.056 -215.988 -211.367 -202.126 -202.444 -203.079
-750.492 -741.597 -728.308 -701.73 -705.17 -712.051 -714.781 -720.241 -710.619 -691.373 -678.492 -652.729 -645.689 -631.607 -628.227 -621.467 -612.956 -595.933 -587.327 -570.114 -562.237 -546.483 -536.758 -517.307 -509.754 -494.646 -484.608 -464.531 -453.723 -432.107 -428.595 -421.57 -412.466 -394.259 -384.14 -363.902 -357.485 -344.651 -328.987 -297.659 -279.969 -244.59 -235.056 -215.988 -211.367 -202.126 -202.444 -203.079 -192.893 -172.522
-715.019 -701.73 -705.17 -712.051 -714.781 -720.241 -710.619 -691.373 -678.492 -652.729 -645.689 -631.607 -628.227 -621.467 -612.956 -595.933 -587.327 -570.114 -562.237 -546.483 -536.758 -517.307 -509.754 -494.646 -484.608 -464.531 -453.723 -432.107 -428.595 -421.57 -412.466 -394.259 -384.14 -363.902 -357.485 -344.651 -328.987 -297.659 -279.969 -244.59 -235.056 -215.988 -211.367 -202.126 -202.444 -203.079 -192.893 -172.522 -154.765 -119.251
-708.611 -712.051 -714.781 -720.241 -710.619 -691.373 -678.492 -652.729 -645.689 -631.607 -628.227 -621.467 -612.956 -595.933 -587.327 -570.114 -562.237 -546.483 -536.758 -517.307 -509.754 -494.646 -484.608 -464.531 -453.723 -432.107 -428.595 -421.57 -412.466 -394.259 -384.14 -363.902 -357.485 -344.651 -328.987 -297.659 -279.969 -244.59 -235.056 -215.988 -211.367 -202.126 -202.444 -203.079 -192.893 -172.522 -154.765 -119.251 -107.421 -83.7616
-717.511 -720.241 -710.619 -691.373 -678.492 -652.729 -645.689 -631.607 -628.227 -621.467 -612.956 -595.933 -587.327 -570.114 -562.237 -546.483 -536.758 -517.307 -509.754 -494.646 -484.608 -464.531 -453.723 -432.107 -428.595 -421.57 -412.466 -394.259 -384.14 -363.902 -357.485 -344.651 -328.987 -297.659 -279.969 -244.59 -235.056 -215.988 -211.367 -202.126 -202.444 -203.079 -192.893 -172.522 -154.765 -119.251 -107.421 -83.7616 -68.8653 -39.0729
-700.996 -691.373 -678.492 -652.729 -645.689 -631.607 -628.227 -621.467 -612.956 -595.933 -587.327 -570.114 -562.237 -546.483 -536.758 -517.307 -509.754 -494.646 -484.608 -464.531 -453.723 -432.107 -428.595 -421.57 -412.466 -394.259 -384.14 -363.902 -357.485 -344.651 -328.987 -297.659 -279.969 -244.59 -235.056 -215.988 -211.367 -202.126 -202.444 -203.079 -192.893 -172.522 -154.765 -119.251 -107.421 -83.7616 -68.8653 -39.0729 -24.9896 3.17694
-665.611 -652.729 -645.689 -631.607 -628.227 -621.467 -612.956 -595.933 -587.327 -570.114 -562.237 -546.483 -536.758 -517.307 -509.754 -494.646 -484.608 -464.531 -453.723 -432.107 -428.595 -421.57 -412.466 -394.259 -384.14 -363.902 -357.485 -344.651 -328.987 -297.659 -279.969 -244.59 -235.056 -215.988 -211.367 -202.126 -202.444 -203.079 -192.893 -172.522 -154.765 -119.251 -107.421 -83.7616 -68.8653 -39.0729 -24.9896 3.17694 14.5148 37.1905
-638.648 -631.607 -628.227 -621.467 -612.956 -595.933 -587.327 -570.114 -562.237 -546.483 -536.758 -517.307 -509.754 -494.646 -484.608 -464.531 -453.723 -432.107 -428.595 -421.57 -412.466 -394.259 -384.14 -363.902 -357.485 -344.651 -328.987 -297.659 -279.969 -244.59 -235.056 -215.988 -211.367 -202.126 -202.444 -203.079 -192.893 -172.522 -154.765 -119.251 -107.421 -83.7616 -68.8653 -39.0729 -24.9896 3.17694 14.5148 37.1905 53.1369 85.0297
-624.847 -621.467 -612.956 -595.933 -587.327 -570.114 -562.237 -546.483 -536.758 -517.307 -509.754 -494.646 -484.608 -464.531 -453.723 -432.107 -428.595 -421.57 -412.466 -394.259 -384.14 -363.902 -357.485 -344.651 -328.987 -297.659 -279.969 -244.59 -235.056 -215.988 -211.367 -202.126 -202.444 -203.079 -192.893 -172.522 -154.765 -119.251 -107.421 -83.7616 -68.8653 -39.0729 -24.9896 3.17694 14.5148 37.1905 53.1369 85.0297 102.893 138.62
-604.444 -595.933 -587.327 -570.114 -562.237 -546.483 -536.758 -517.307 -509.754 -494.646 -484.608 -464.531 -453.723 -432.107 -428.595 -421.57 -412.466 -394.259 -384.14 -363.902 -357.485 -344.651 -328.987 -297.659 -279.969 -244.59 -235.056 -215.988 -211.367 -202.126 -202.444 -203.079 -192.893 -172.522 -154.765 -119.251 -107.421 -83.7616 -68.8653 -39.0729 -24.9896 3.17694 14.5148 37.1905 53.1369 85.0297 102.893 138.62 157.59 195.529
-578.721 -570.114 -562.237 -546.483 -536.758 -517.307 -509.754 -494.646 -484.608 -464.531 -453.723 -432.107 -428.595 -421.57 -412.466 -394.259 -384.14 -363.902 -357.485 -344.651 -328.987 -297.659 -279.969 -244.59 -235.056 -215.988 -211.367 -202.126 -202.444 -203.079 -192.893 -172.522 -154.765 -119.251 -107.421 -83.7616 -68.8653 -39.0729 -24.9896 3.17694 14.5148 37.1905 53.1369 85.0297 102.893 138.62 157.59 195.529 216.958 259.816
-554.36 -546.483 -536.758 -517.307 -509.754 -494.646 -484.608 -464.531 -453.723 -432.107 -428.595 -421.57 -412.466 -394.259 -384.14 -363.902 -357.485 -344.651 -328.987 -297.659 -279.969 -244.59 -235.056 -215.988 -211.367 -202.126 -202.444 -203.079 -192.893 -172.522 -154.765 -119.251 -107.421 -83.7616 -68.8653 -39.0729 -24.9896 3.17694 14.5148 37.1905 53.1369 85.0297 102.893 138.62 157.59 195.529 216.958 259.816 283.396 330.557
-527.033 -517.307 -509.754 -494.646 -484.608 -464.531 -453.723 -432.107 -428.595 -421.57 -412.466 -394.259 -384.14 -363.902 -357.485 -344.651 -328.987 -297.659 -279.969 -244.59 -235.056 -215.988 -211.367 -202.126 -202.444 -203.079 -192.893 -172.522 -154.765 -119.251 -107.421 -83.7616 -68.8653 -39.0729 -24.9896 3.17694 14.5148 37.1905 53.1369 85.0297 102.893 138.62 157.59 195.529 216.958 259.816 283.396 330.557 357.951 412.74
-502.2 -494.646 -484.608 -464.531 -453.723 -432.107 -428.595 -421.57 -412.466 -394.259 -384.14 -363.902 -357.485 -344.651 -328.987 -297.659 -279.969 -244.59 -235.056 -215.988 -211.367 -202.126 -202.444 -203.079 -192.893 -172.522 -154.765 -119.251 -107.421 -83.7616 -68.8653 -39.0729 -24.9896 3.17694 14.5148 37.1905 53.1369 85.0297 102.893 138.62 157.59 195.529 216.958 259.816 283.396 330.557 357.951 412.74 445.199 510.116
-474.569 -464.531 -453.723 -432.107 -428.595 -421.57 -412.466 -394.259 -384.14 -363.902 -357.485 -344.651 -328.987 -297.659 -279.969 -244.59 -235.056 -215.988 -211.367 -202.126 -202.444 -203.079 -192.893 -172.522 -154.765 -119.251 -107.421 -83.7616 -68.8653 -39.0729 -24.9896 3.17694 14.5148 37.1905 53.1369 85.0297 102.893 138.62 157.59 195.529 216.958 259.816 283.396 330.557 357.951 412.74 445.199 510.116 548.577 625.499
-442.915 -432.107 -428.595 -421.57 -412.466 -394.259 -384.14 -363.902 -357.485 -344.651 -328.987 -297.659 -279.969 -244.59 -235.056 -215.988 -211.367 -202.126 -202.444 -203.079 -192.893 -172.522 -154.765 -119.251 -107.421 -83.7616 -68.8653 -39.0729 -24.9896 3.17694 14.5148 37.1905 53.1369 85.0297 102.893 138.62 157.59 195.529 216.958 259.816 283.396 330.557 357.951 412.74 445.199 510.116 548.577 625.499 671.631 763.895
-428.595 -425.082 -421.57 -403.363 -394.259 -374.021 -363.902 -351.068 -344.651 -313.323 -297.659 -262.28 -244.59 -225.522 -215.988 -206.747 -202.126 -202.761 -203.079 -182.708 -172.522 -137.008 -119.251 -95.5913 -83.7616 -53.9691 -39.0729 -10.9063 3.17694 25.8526 37.1905 69.0833 85.0297 120.757 138.62 176.559 195.529 238.387 259.816 306.977 330.557 385.346 412.74 477.657 510.116 587.038 625.499 717.763 763.895 856.468 902.755
393.079 397.458 401.838 386.425 355.598 315.758 236.077 191.085 101.101 79.842 37.3233 24.224 -1.97465 -22.0318 -62.146 -81.9513 -121.562 -147.775 -200.201 -223.936 -271.406 -283.227 -306.869 -313.756 -327.528 -358.283 -419.791 -454.841 -524.942 -527.94 -533.936 -546.845 -572.663 -600.82 -657.135 -667.105 -687.046 -694.716 -710.056 -712.965 -718.784 -730.989 -755.399 -765.77 -786.511 -779.285 -764.835 -774.262 -793.117 -791.414 -788.007