/*--------------------------------*- C++ -*----------------------------------*\
| =========                 |                                                 |
| \\      /  F ield         | OpenFOAM: The Open Source CFD Toolbox           |
|  \\    /   O peration     | Version:  2.3.0                                 |
|   \\  /    A nd           | Web:      www.OpenFOAM.org                      |
|    \\/     M anipulation  |                                                 |
\*---------------------------------------------------------------------------*/
FoamFile
{
    version     2.0;
    format      ascii;
    class       volScalarField;
    location    "200";
    object      nut;
}
// * * * * * * * * * * * * * * * * * * * * * * * * * * * * * * * * * * * * * //

dimensions      [0 2 -1 0 0 0 0];

internalField   nonuniform List<scalar> 
28552
(
1.77259e-05
1.56306e-05
1.55785e-05
1.5561e-05
1.55457e-05
1.58148e-05
1.63825e-05
1.72399e-05
1.82693e-05
1.98177e-05
2.1814e-05
2.43489e-05
2.75433e-05
3.16606e-05
3.59207e-05
4.07992e-05
4.65286e-05
3.86427e-05
3.14753e-05
2.58107e-05
2.13038e-05
1.77627e-05
1.48909e-05
1.27438e-05
1.08617e-05
9.61924e-06
8.22988e-06
7.20614e-06
6.21506e-06
5.67397e-06
5.55018e-06
6.92605e-06
8.07735e-06
5.10611e-07
1.91931e-05
1.64318e-05
1.67878e-05
1.68908e-05
1.68827e-05
1.72251e-05
1.78804e-05
1.8828e-05
2.01246e-05
2.18302e-05
2.40104e-05
2.67611e-05
3.02064e-05
3.46169e-05
3.91177e-05
4.42667e-05
4.74698e-05
3.85726e-05
3.15182e-05
2.59309e-05
2.14687e-05
1.79632e-05
1.51019e-05
1.29755e-05
1.10978e-05
9.80973e-06
8.41191e-06
7.31095e-06
6.33043e-06
5.72489e-06
5.5987e-06
6.97029e-06
8.18679e-06
5.9248e-07
2.01529e-05
1.67953e-05
1.74189e-05
1.75836e-05
1.7627e-05
1.80902e-05
1.88779e-05
1.99648e-05
2.14182e-05
2.33004e-05
2.56811e-05
2.86646e-05
3.23822e-05
3.7121e-05
4.19454e-05
4.74371e-05
4.72351e-05
3.84999e-05
3.15543e-05
2.60435e-05
2.16256e-05
1.81582e-05
1.53094e-05
1.32071e-05
1.13365e-05
9.98967e-06
8.5854e-06
7.41205e-06
6.44495e-06
5.77996e-06
5.70011e-06
7.05407e-06
8.25059e-06
6.96208e-07
2.12441e-05
1.72993e-05
1.83113e-05
1.85456e-05
1.86725e-05
1.92668e-05
2.01822e-05
2.14078e-05
2.30216e-05
2.50862e-05
2.76751e-05
3.09001e-05
3.49125e-05
4.0012e-05
4.51879e-05
5.10572e-05
4.69841e-05
3.84071e-05
3.15691e-05
2.61362e-05
2.17644e-05
1.83394e-05
1.55066e-05
1.34344e-05
1.15745e-05
1.01484e-05
8.73783e-06
7.49702e-06
6.5455e-06
5.83449e-06
5.78194e-06
7.15929e-06
8.27177e-06
8.03601e-07
2.25244e-05
1.79827e-05
1.94461e-05
1.97123e-05
1.99238e-05
2.06601e-05
2.17095e-05
2.30829e-05
2.48703e-05
2.71344e-05
2.99555e-05
3.34531e-05
3.77796e-05
4.32595e-05
4.88003e-05
5.50653e-05
4.68408e-05
3.83976e-05
3.16493e-05
2.62824e-05
2.19479e-05
1.85595e-05
1.57403e-05
1.36953e-05
1.18293e-05
1.03083e-05
8.89013e-06
7.58713e-06
6.64721e-06
5.89231e-06
5.85879e-06
7.24354e-06
8.29846e-06
9.43853e-07
2.3775e-05
1.86901e-05
2.07327e-05
2.10096e-05
2.13148e-05
2.22084e-05
2.34088e-05
2.49495e-05
2.69321e-05
2.94195e-05
3.24999e-05
3.63037e-05
4.09973e-05
4.69323e-05
5.29258e-05
5.71504e-05
4.67216e-05
3.84053e-05
3.17423e-05
2.644e-05
2.21421e-05
1.87916e-05
1.59878e-05
1.39663e-05
1.20627e-05
1.04525e-05
9.0289e-06
7.66732e-06
6.74126e-06
5.94798e-06
5.93133e-06
7.34109e-06
8.33084e-06
1.13437e-06
2.52335e-05
1.93949e-05
2.20088e-05
2.22558e-05
2.26436e-05
2.36672e-05
2.49894e-05
2.66694e-05
2.88155e-05
3.14913e-05
3.49253e-05
3.89917e-05
4.3993e-05
5.03014e-05
5.6651e-05
5.69373e-05
4.66671e-05
3.84649e-05
3.18778e-05
2.66343e-05
2.2369e-05
1.90544e-05
1.62655e-05
1.42237e-05
1.22887e-05
1.05943e-05
9.16546e-06
7.75112e-06
6.83554e-06
6.00813e-06
6.00128e-06
7.43257e-06
8.3797e-06
1.39779e-06
2.88351e-05
2.04123e-05
2.34907e-05
2.38495e-05
2.43469e-05
2.55426e-05
2.70343e-05
2.89088e-05
3.12777e-05
3.42048e-05
3.77947e-05
4.21932e-05
4.75858e-05
5.43738e-05
6.11875e-05
5.68059e-05
4.66784e-05
3.85792e-05
3.206e-05
2.68703e-05
2.26344e-05
1.93536e-05
1.65799e-05
1.44734e-05
1.25104e-05
1.07372e-05
9.30248e-06
7.84147e-06
6.93239e-06
6.07379e-06
6.07288e-06
7.52372e-06
8.44786e-06
1.7927e-06
3.13291e-05
2.14102e-05
2.51155e-05
2.5279e-05
2.58941e-05
2.72443e-05
2.88794e-05
3.0921e-05
3.34842e-05
3.66366e-05
4.0496e-05
4.52224e-05
5.15224e-05
5.88487e-05
6.61906e-05
5.67174e-05
4.67208e-05
3.87176e-05
3.22618e-05
2.71243e-05
2.29174e-05
1.96723e-05
1.69142e-05
1.4699e-05
1.27097e-05
1.08632e-05
9.42427e-06
7.92316e-06
7.01921e-06
6.14027e-06
6.13486e-06
7.63301e-06
8.48292e-06
2.39748e-06
2.99778e-05
2.22843e-05
2.65189e-05
2.68643e-05
2.76657e-05
2.91904e-05
3.09919e-05
3.32309e-05
3.6019e-05
3.94286e-05
4.35887e-05
4.86699e-05
5.48933e-05
6.27486e-05
6.902e-05
5.67127e-05
4.68296e-05
3.89105e-05
3.25097e-05
2.74193e-05
2.32388e-05
2.00287e-05
1.72285e-05
1.49105e-05
1.28947e-05
1.09795e-05
9.53494e-06
7.9992e-06
7.09629e-06
6.20131e-06
6.18712e-06
7.7426e-06
8.51501e-06
3.40645e-06
2.95457e-05
2.32336e-05
2.81639e-05
2.83778e-05
2.96252e-05
3.13308e-05
3.33057e-05
3.57622e-05
3.87989e-05
4.24943e-05
4.69907e-05
5.24699e-05
5.91688e-05
6.76173e-05
6.88682e-05
5.67198e-05
4.6949e-05
3.91149e-05
3.27704e-05
2.77304e-05
2.35795e-05
2.03761e-05
1.75135e-05
1.50989e-05
1.30597e-05
1.10791e-05
9.6334e-06
8.06518e-06
7.16768e-06
6.25875e-06
6.23997e-06
7.83738e-06
8.63826e-06
5.42583e-06
3.10439e-05
2.43733e-05
2.99619e-05
3.00626e-05
3.13123e-05
3.31729e-05
3.53097e-05
3.8311e-05
4.15914e-05
4.557e-05
5.0401e-05
5.62787e-05
6.34555e-05
7.25102e-05
6.89591e-05
5.6933e-05
4.72453e-05
3.94724e-05
3.3166e-05
2.81604e-05
2.40287e-05
2.07741e-05
1.78525e-05
1.5342e-05
1.32732e-05
1.12331e-05
9.77398e-06
8.1776e-06
7.27279e-06
6.33752e-06
6.31719e-06
7.90738e-06
9.07331e-06
1.20043e-05
3.25592e-05
2.56256e-05
3.1853e-05
3.18578e-05
3.33981e-05
3.54534e-05
3.77918e-05
4.072e-05
4.46819e-05
4.90001e-05
5.42386e-05
6.06093e-05
6.83911e-05
7.82259e-05
6.90382e-05
5.71313e-05
4.75256e-05
3.98155e-05
3.3549e-05
2.85823e-05
2.44739e-05
2.11205e-05
1.81449e-05
1.55455e-05
1.34519e-05
1.13536e-05
9.88486e-06
8.26395e-06
7.35072e-06
6.4095e-06
6.37093e-06
8.05888e-06
1.15512e-05
3.12723e-05
3.41159e-05
2.69864e-05
3.38244e-05
3.37126e-05
3.55872e-05
3.78521e-05
4.04172e-05
4.39965e-05
4.78591e-05
5.25296e-05
5.81924e-05
6.50808e-05
7.35023e-05
8.37785e-05
6.9126e-05
5.73344e-05
4.78096e-05
4.01637e-05
3.39403e-05
2.9018e-05
2.48851e-05
2.14157e-05
1.8388e-05
1.57089e-05
1.35912e-05
1.14457e-05
9.9661e-06
8.33563e-06
7.41107e-06
6.47721e-06
6.41437e-06
8.24541e-06
1.97558e-05
7.02728e-05
3.574e-05
2.84116e-05
3.57959e-05
3.55834e-05
3.78212e-05
4.03149e-05
4.34973e-05
4.69415e-05
5.11124e-05
5.61553e-05
6.22704e-05
6.97163e-05
7.88387e-05
8.39013e-05
6.9383e-05
5.76899e-05
4.82329e-05
4.06407e-05
3.44531e-05
2.95669e-05
2.53313e-05
2.17468e-05
1.86661e-05
1.59087e-05
1.37627e-05
1.15726e-05
1.00789e-05
8.43106e-06
7.49846e-06
6.54784e-06
6.47597e-06
8.33369e-06
2.56881e-05
0.000135079
3.73797e-05
3.00335e-05
3.78155e-05
3.75745e-05
4.02081e-05
4.32922e-05
4.63461e-05
5.01026e-05
5.46404e-05
6.01339e-05
6.68046e-05
7.4947e-05
8.49504e-05
8.40934e-05
6.96954e-05
5.80908e-05
4.86943e-05
4.11513e-05
3.49971e-05
3.00828e-05
2.57554e-05
2.20624e-05
1.89303e-05
1.60975e-05
1.39231e-05
1.16897e-05
1.018e-05
8.5193e-06
7.57206e-06
6.62115e-06
6.5284e-06
8.89533e-06
5.3293e-05
0.000224135
3.90105e-05
3.17795e-05
3.99612e-05
3.9967e-05
4.30181e-05
4.60309e-05
4.93974e-05
5.35092e-05
5.84667e-05
6.44828e-05
7.18043e-05
8.07757e-05
9.18525e-05
8.4244e-05
6.99707e-05
5.8461e-05
4.91328e-05
4.16484e-05
3.5538e-05
3.0516e-05
2.61037e-05
2.23142e-05
1.9135e-05
1.62388e-05
1.40389e-05
1.17751e-05
1.02487e-05
8.59113e-06
7.62375e-06
6.68679e-06
6.61617e-06
1.26589e-05
9.89481e-05
0.000320943
4.0933e-05
3.38432e-05
4.23207e-05
4.19805e-05
4.54514e-05
4.87567e-05
5.24613e-05
5.69399e-05
6.23345e-05
6.88979e-05
7.69086e-05
8.67697e-05
9.93273e-05
8.4557e-05
7.0395e-05
5.89699e-05
4.97019e-05
4.22694e-05
3.61264e-05
3.09653e-05
2.64706e-05
2.25882e-05
1.93615e-05
1.64048e-05
1.41763e-05
1.1883e-05
1.03392e-05
8.6775e-06
7.69454e-06
6.75621e-06
6.67455e-06
1.62804e-05
0.000131786
0.000404763
4.26825e-05
3.59319e-05
4.45369e-05
4.42276e-05
4.81464e-05
5.17958e-05
5.59059e-05
6.08163e-05
6.67227e-05
7.39212e-05
8.27163e-05
9.39792e-05
0.000102224
8.48115e-05
7.0759e-05
5.94207e-05
5.02181e-05
4.28461e-05
3.65804e-05
3.12962e-05
2.67265e-05
2.27638e-05
1.94975e-05
1.64906e-05
1.4243e-05
1.19278e-05
1.03644e-05
8.71823e-06
7.71278e-06
6.83284e-06
7.6421e-06
3.50776e-05
0.000190652
0.00045978
4.4423e-05
3.81418e-05
4.67848e-05
4.65127e-05
5.08583e-05
5.48442e-05
5.93589e-05
6.46758e-05
7.10632e-05
7.95205e-05
8.87616e-05
9.99888e-05
0.000102512
8.52292e-05
7.12743e-05
6.00116e-05
5.08648e-05
4.34664e-05
3.70815e-05
3.16842e-05
2.70455e-05
2.30092e-05
1.97015e-05
1.66493e-05
1.43745e-05
1.20395e-05
1.04576e-05
8.804e-06
7.78387e-06
6.88969e-06
7.76057e-06
3.7725e-05
0.000200659
0.000489226
4.6165e-05
4.05177e-05
4.91013e-05
4.89159e-05
5.36989e-05
5.80802e-05
6.30609e-05
6.8849e-05
7.64299e-05
8.47141e-05
9.47144e-05
0.000106868
0.00010268
8.55239e-05
7.16641e-05
6.04783e-05
5.13916e-05
4.39071e-05
3.74187e-05
3.19249e-05
2.72274e-05
2.31289e-05
1.97914e-05
1.66938e-05
1.43983e-05
1.2056e-05
1.04544e-05
8.8304e-06
7.78296e-06
7.10003e-06
1.14023e-05
6.65102e-05
0.000255404
0.000501109
4.7955e-05
4.30437e-05
5.14621e-05
5.13589e-05
5.65443e-05
6.1303e-05
6.72973e-05
7.34496e-05
8.07574e-05
8.95892e-05
0.000100254
0.000113222
0.000102909
8.58743e-05
7.21062e-05
6.09953e-05
5.19482e-05
4.43302e-05
3.77482e-05
3.21691e-05
2.74172e-05
2.32659e-05
1.98975e-05
1.6771e-05
1.4456e-05
1.21056e-05
1.04896e-05
8.86632e-06
7.80499e-06
7.1427e-06
1.28527e-05
7.84833e-05
0.000275511
0.000491611
4.976e-05
4.57124e-05
5.39027e-05
5.43685e-05
5.99454e-05
6.51051e-05
7.09603e-05
7.75446e-05
8.53517e-05
9.47974e-05
0.000106219
0.000120145
0.000103199
8.62774e-05
7.25967e-05
6.15567e-05
5.24675e-05
4.47313e-05
3.80658e-05
3.241e-05
2.76099e-05
2.34103e-05
2.00142e-05
1.68596e-05
1.45268e-05
1.21654e-05
1.05363e-05
8.91367e-06
7.83334e-06
7.19084e-06
1.45315e-05
9.01573e-05
0.000294416
0.000479081
5.20596e-05
4.87878e-05
5.67988e-05
5.68763e-05
6.28216e-05
6.84119e-05
7.47523e-05
8.18068e-05
9.01543e-05
0.000100252
0.000112465
0.000122262
0.000103423
8.66075e-05
7.30081e-05
6.20374e-05
5.28489e-05
4.50055e-05
3.82639e-05
3.2542e-05
2.76868e-05
2.34471e-05
2.00268e-05
1.68605e-05
1.4507e-05
1.21593e-05
1.05031e-05
8.91427e-06
7.84138e-06
7.9156e-06
2.34769e-05
0.0001181
0.000340626
0.000461511
5.39186e-05
5.1695e-05
5.92729e-05
5.94076e-05
6.56188e-05
7.16193e-05
7.83964e-05
8.58652e-05
9.46684e-05
0.000105315
0.000118186
0.000122515
0.000103782
8.70595e-05
7.35328e-05
6.25915e-05
5.32797e-05
4.53363e-05
3.85212e-05
3.27365e-05
2.78376e-05
2.35615e-05
2.01136e-05
1.693e-05
1.45574e-05
1.22062e-05
1.05353e-05
8.93632e-06
7.85921e-06
7.94643e-06
2.53593e-05
0.000129405
0.000366043
0.000438446
5.575e-05
5.47921e-05
6.17937e-05
6.21982e-05
6.86225e-05
7.51278e-05
8.23748e-05
9.03251e-05
9.96608e-05
0.000110956
0.000124626
0.000122717
0.000104099
8.74768e-05
7.4029e-05
6.30612e-05
5.36429e-05
4.56125e-05
3.87343e-05
3.28954e-05
2.79597e-05
2.36516e-05
2.0182e-05
1.69817e-05
1.45948e-05
1.22406e-05
1.0552e-05
8.95055e-06
7.87082e-06
8.36732e-06
3.15053e-05
0.00015009
0.000413843
0.000421839
5.77418e-05
5.78412e-05
6.43682e-05
6.49542e-05
7.15996e-05
7.86353e-05
8.63626e-05
9.48307e-05
0.000104724
0.000116699
0.000131179
0.000122875
0.000104367
8.78426e-05
7.44724e-05
6.34327e-05
5.39176e-05
4.58098e-05
3.88744e-05
3.29856e-05
2.80109e-05
2.36803e-05
2.01899e-05
1.69864e-05
1.4581e-05
1.22391e-05
1.05287e-05
8.95355e-06
7.91472e-06
9.70194e-06
4.36224e-05
0.000183443
0.000494545
0.000405463
5.98003e-05
6.10547e-05
6.70336e-05
6.78506e-05
7.46485e-05
8.22296e-05
9.04063e-05
9.93806e-05
0.000109805
0.000122432
0.000137704
0.00012307
0.000104671
8.82442e-05
7.49505e-05
6.37927e-05
5.41895e-05
4.6013e-05
3.90252e-05
3.30974e-05
2.80914e-05
2.37418e-05
2.02314e-05
1.70223e-05
1.46013e-05
1.22632e-05
1.05345e-05
8.96786e-06
7.9344e-06
1.04456e-05
5.13846e-05
0.000210239
0.000509954
0.00038932
6.19528e-05
6.42828e-05
6.97657e-05
7.08781e-05
7.78079e-05
8.6012e-05
9.46445e-05
0.000104203
0.000115231
0.00012864
0.000143606
0.000123197
0.00010491
8.85853e-05
7.53053e-05
6.40312e-05
5.43399e-05
4.61037e-05
3.90711e-05
3.31129e-05
2.80814e-05
2.37227e-05
2.01942e-05
1.69933e-05
1.45543e-05
1.22352e-05
1.04898e-05
8.95926e-06
8.17149e-06
1.4426e-05
7.43524e-05
0.000259782
0.000549462
0.000374642
6.42074e-05
6.73993e-05
7.25278e-05
7.383e-05
8.08966e-05
8.96904e-05
9.8743e-05
0.000108861
0.000120442
0.000134569
0.000143679
0.000123391
0.000105209
8.89796e-05
7.56574e-05
6.42855e-05
5.45195e-05
4.62287e-05
3.91444e-05
3.31587e-05
2.81015e-05
2.37339e-05
2.01879e-05
1.69915e-05
1.4537e-05
1.22297e-05
1.04706e-05
8.95993e-06
8.32256e-06
1.70095e-05
8.88352e-05
0.000301476
0.000599373
0.000359307
6.64859e-05
7.05326e-05
7.53446e-05
7.68664e-05
8.40137e-05
9.34137e-05
0.000102845
0.000113518
0.000125609
0.000140406
0.000143835
0.000123665
0.000105583
8.94449e-05
7.60364e-05
6.45746e-05
5.47388e-05
4.6397e-05
3.92705e-05
3.32572e-05
2.81738e-05
2.37937e-05
2.02299e-05
1.70303e-05
1.45618e-05
1.22553e-05
1.0483e-05
8.96643e-06
8.33146e-06
1.75998e-05
9.48725e-05
0.000335052
0.000669619
0.000352405
6.9151e-05
7.42362e-05
7.87772e-05
8.06972e-05
8.79292e-05
9.81072e-05
0.000107953
0.000119313
0.000131967
0.000147486
0.000143905
0.000123856
0.000105881
8.98318e-05
7.63153e-05
6.47709e-05
5.48663e-05
4.64817e-05
3.93193e-05
3.32856e-05
2.81805e-05
2.37946e-05
2.02157e-05
1.70207e-05
1.45381e-05
1.2242e-05
1.04566e-05
8.97151e-06
8.6942e-06
2.30378e-05
0.000118421
0.000395361
0.000755243
0.000350629
7.14572e-05
7.72544e-05
8.15923e-05
8.38554e-05
9.10756e-05
0.000101934
0.000112031
0.000123985
0.000137067
0.000153207
0.000143939
0.000124016
0.000106142
9.0145e-05
7.65328e-05
6.49192e-05
5.49608e-05
4.65419e-05
3.93483e-05
3.33012e-05
2.81763e-05
2.37908e-05
2.01964e-05
1.70112e-05
1.45131e-05
1.22304e-05
1.04319e-05
8.98499e-06
9.15957e-06
2.9247e-05
0.000142248
0.000460292
0.000853362
0.000349386
7.39089e-05
8.01061e-05
8.45244e-05
8.70037e-05
9.42839e-05
0.000105808
0.000116136
0.000128724
0.000142231
0.000159074
0.000143934
0.000124134
0.000106369
9.03917e-05
7.66904e-05
6.50147e-05
5.50071e-05
4.65596e-05
3.93383e-05
3.32831e-05
2.81401e-05
2.37604e-05
2.01512e-05
1.69808e-05
1.4468e-05
1.22019e-05
1.03954e-05
9.02083e-06
1.01333e-05
3.95924e-05
0.000175758
0.000547473
0.000991528
0.000352222
7.63423e-05
8.28467e-05
8.74807e-05
9.01814e-05
9.75216e-05
0.000109688
0.000120219
0.000133456
0.00014738
0.000164933
0.000143998
0.000124319
0.000106665
9.0664e-05
7.6881e-05
6.51494e-05
5.50952e-05
4.66222e-05
3.93728e-05
3.33097e-05
2.81481e-05
2.37705e-05
2.01474e-05
1.69841e-05
1.4459e-05
1.22005e-05
1.03841e-05
9.03443e-06
1.05192e-05
4.46688e-05
0.00019481
0.000626729
0.00113893
0.000361556
7.87647e-05
8.55126e-05
9.04719e-05
9.34281e-05
0.000100834
0.000113685
0.000124393
0.00013834
0.000152696
0.000165708
0.000143994
0.000124446
0.000106906
9.08531e-05
7.69972e-05
6.5218e-05
5.5124e-05
4.66319e-05
3.93598e-05
3.32937e-05
2.81172e-05
2.37462e-05
2.01113e-05
1.69598e-05
1.44232e-05
1.21766e-05
1.0356e-05
9.0993e-06
1.19224e-05
5.73898e-05
0.000232409
0.000732679
0.00128419
0.000377872
8.1378e-05
8.79718e-05
9.36962e-05
9.66299e-05
0.000104287
0.000117731
0.000128631
0.000143287
0.000158045
0.000165539
0.000143972
0.000124556
0.000107125
9.10014e-05
7.70807e-05
6.52615e-05
5.51331e-05
4.66271e-05
3.93354e-05
3.32703e-05
2.80805e-05
2.37188e-05
2.00728e-05
1.69352e-05
1.43873e-05
1.21538e-05
1.0331e-05
9.19009e-06
1.36412e-05
7.08756e-05
0.000272036
0.000849105
0.00142312
0.000397646
8.40467e-05
9.02974e-05
9.69692e-05
9.98172e-05
0.000107798
0.000121775
0.000132853
0.000148198
0.000163312
0.000165353
0.000143937
0.000124655
0.000107298
9.11162e-05
7.71376e-05
6.52851e-05
5.51264e-05
4.66112e-05
3.93022e-05
3.3241e-05
2.80392e-05
2.36886e-05
2.00323e-05
1.69088e-05
1.43508e-05
1.21296e-05
1.03085e-05
9.32333e-06
1.59708e-05
8.67123e-05
0.000318218
0.000981189
0.00155725
0.000422388
8.66602e-05
9.25412e-05
0.000100239
0.000102987
0.000111333
0.000125782
0.000137029
0.00015305
0.000168495
0.000165176
0.000143907
0.000124757
0.000107442
9.12087e-05
7.71764e-05
6.52944e-05
5.51078e-05
4.65858e-05
3.9261e-05
3.32051e-05
2.79921e-05
2.3653e-05
1.99873e-05
1.68779e-05
1.43107e-05
1.21017e-05
1.02886e-05
9.54418e-06
1.94348e-05
0.000106498
0.000374189
0.00112839
0.0016836
0.000448879
8.93712e-05
9.46609e-05
0.000103639
0.000106137
0.000115003
0.000129809
0.000141286
0.000157964
0.000173775
0.000164925
0.000143814
0.000124803
0.000107501
9.12345e-05
7.71575e-05
6.52544e-05
5.50467e-05
4.65241e-05
3.91886e-05
3.31426e-05
2.79225e-05
2.35983e-05
1.9926e-05
1.68333e-05
1.42592e-05
1.2065e-05
1.0275e-05
9.95276e-06
2.49363e-05
0.000132318
0.000444324
0.001296
0.00180183
0.000479319
9.20871e-05
9.67968e-05
0.000107047
0.000109298
0.000118751
0.000133841
0.00014556
0.000162858
0.000179017
0.00016467
0.000143723
0.000124854
0.000107544
9.12539e-05
7.71395e-05
6.52219e-05
5.49968e-05
4.64773e-05
3.91325e-05
3.3098e-05
2.78711e-05
2.35613e-05
1.98827e-05
1.68041e-05
1.42237e-05
1.20409e-05
1.02699e-05
1.03178e-05
2.9838e-05
0.000154332
0.000515145
0.00146982
0.0019083
0.000509056
9.46991e-05
9.89033e-05
0.00011042
0.000112464
0.000122547
0.000137838
0.000149828
0.000167703
0.000184219
0.000164368
0.000143584
0.000124852
0.000107505
9.12016e-05
7.70536e-05
6.51247e-05
5.48863e-05
4.63725e-05
3.90229e-05
3.30018e-05
2.77727e-05
2.34797e-05
1.97987e-05
1.67377e-05
1.41543e-05
1.19905e-05
1.03069e-05
1.16048e-05
4.29974e-05
0.000199355
0.000624732
0.00163799
0.00200268
0.00053729
9.72916e-05
0.000100892
0.000113798
0.000115565
0.000126369
0.000141733
0.000154026
0.000172403
0.000186766
0.000164066
0.000143453
0.000124863
0.000107466
9.11578e-05
7.69836e-05
6.50499e-05
5.48018e-05
4.62973e-05
3.89438e-05
3.29378e-05
2.7706e-05
2.34294e-05
1.97453e-05
1.66993e-05
1.41128e-05
1.1963e-05
1.03386e-05
1.24973e-05
5.19132e-05
0.000230629
0.000724484
0.0017732
0.00209768
0.000571432
9.99095e-05
0.000102891
0.000117229
0.000118643
0.000130265
0.000145546
0.000158188
0.000176953
0.000186187
0.000163696
0.000143267
0.000124802
0.000107368
9.10717e-05
7.68811e-05
6.49505e-05
5.46988e-05
4.62082e-05
3.88547e-05
3.28657e-05
2.7634e-05
2.33739e-05
1.96889e-05
1.66566e-05
1.40687e-05
1.19338e-05
1.04024e-05
1.38926e-05
6.45121e-05
0.000272089
0.000849869
0.0019458
0.00218197
0.000600732
0.000102474
0.000104978
0.000120609
0.000121788
0.000134266
0.000149397
0.000162427
0.000181521
0.000185517
0.000163241
0.000142998
0.000124634
0.000107171
9.08996e-05
7.66994e-05
6.4777e-05
5.45285e-05
4.60557e-05
3.87091e-05
3.27399e-05
2.75147e-05
2.32742e-05
1.95934e-05
1.6579e-05
1.39945e-05
1.18926e-05
1.06518e-05
1.77045e-05
9.06661e-05
0.000342793
0.00102601
0.00210483
0.00225199
0.000628309
0.000104888
0.00010698
0.000123852
0.000124877
0.000138173
0.000153077
0.00016648
0.000185839
0.00018489
0.000162829
0.000142772
0.00012449
0.000107005
9.07599e-05
7.65529e-05
6.46419e-05
5.43967e-05
4.59433e-05
3.8602e-05
3.26534e-05
2.74321e-05
2.32105e-05
1.95314e-05
1.65324e-05
1.39492e-05
1.18723e-05
1.08451e-05
2.05538e-05
0.000109138
0.000401342
0.00119265
0.00225228
0.00231421
0.000654794
0.000107262
0.00010896
0.000127062
0.000127917
0.000142102
0.000156613
0.000170464
0.000189971
0.000184163
0.000162326
0.000142459
0.000124246
0.00010675
9.05461e-05
7.6341e-05
6.44479e-05
5.42134e-05
4.57837e-05
3.8454e-05
3.25285e-05
2.73165e-05
2.31156e-05
1.94425e-05
1.64607e-05
1.38839e-05
1.18581e-05
1.13783e-05
2.72194e-05
0.000143559
0.000490507
0.00138648
0.00241705
0.00237284
0.000679057
0.000109583
0.000111036
0.000130252
0.000131072
0.000146094
0.000160206
0.000174508
0.000194156
0.000183416
0.000161796
0.000142109
0.000123941
0.000106434
9.02729e-05
7.60706e-05
6.41956e-05
5.39747e-05
4.55694e-05
3.8256e-05
3.23544e-05
2.71572e-05
2.29788e-05
1.93169e-05
1.63558e-05
1.37961e-05
1.19075e-05
1.2922e-05
4.21582e-05
0.000200765
0.000615231
0.00158753
0.00256048
0.0024056
0.00069374
0.000111716
0.000113007
0.000133305
0.000134108
0.000149911
0.000163528
0.000178279
0.000197996
0.000182718
0.000161313
0.000141803
0.000123666
0.000106153
9.00325e-05
7.58338e-05
6.39776e-05
5.37697e-05
4.53887e-05
3.80901e-05
3.2212e-05
2.70277e-05
2.28707e-05
1.92183e-05
1.62756e-05
1.3734e-05
1.1996e-05
1.45913e-05
5.64738e-05
0.000247931
0.000729062
0.00172094
0.00267911
0.00245081
0.000713709
0.000113863
0.00011505
0.000136401
0.000137109
0.000153705
0.000166666
0.000181898
0.000201562
0.000181914
0.000160745
0.000141425
0.000123321
0.00010582
8.97569e-05
7.55736e-05
6.37446e-05
5.3557e-05
4.52044e-05
3.7925e-05
3.20714e-05
2.69026e-05
2.27657e-05
1.91247e-05
1.61985e-05
1.3681e-05
1.21448e-05
1.68533e-05
7.38226e-05
0.000298775
0.000854513
0.00189039
0.00281592
0.00248458
0.000724889
0.000115993
0.000117297
0.000139449
0.000140176
0.000157495
0.000169728
0.000185394
0.000204202
0.000181034
0.000160117
0.000140995
0.000122927
0.000105454
8.94593e-05
7.53005e-05
6.35049e-05
5.33429e-05
4.50218e-05
3.77646e-05
3.19364e-05
2.67852e-05
2.26682e-05
1.90397e-05
1.61297e-05
1.364e-05
1.23357e-05
1.93922e-05
9.12703e-05
0.000346652
0.000986767
0.0020372
0.00294431
0.00254431
0.000753656
0.000117863
0.000119433
0.000142188
0.000143025
0.000160894
0.000172304
0.000188306
0.000203081
0.000180194
0.000159527
0.000140596
0.000122565
0.000105123
8.9194e-05
7.50594e-05
6.32974e-05
5.31596e-05
4.48694e-05
3.76323e-05
3.18289e-05
2.66927e-05
2.25942e-05
1.89759e-05
1.60801e-05
1.3614e-05
1.25122e-05
2.16357e-05
0.000106082
0.000388801
0.0011165
0.00221606
0.00308563
0.00257531
0.000768844
0.000119722
0.000121648
0.000144946
0.000145917
0.000164233
0.000174803
0.000191133
0.000201743
0.000179151
0.000158738
0.000139995
0.000122004
0.000104606
8.87608e-05
7.46625e-05
6.2941e-05
5.2841e-05
4.45874e-05
3.7385e-05
3.16107e-05
2.65031e-05
2.24284e-05
1.88324e-05
1.59637e-05
1.36096e-05
1.35599e-05
3.19618e-05
0.000155477
0.000495003
0.00131231
0.00239862
0.00320136
0.00257928
0.000775091
0.000121436
0.000124081
0.000147789
0.00014899
0.000167591
0.000177332
0.000193899
0.000200273
0.000177999
0.000157858
0.000139311
0.000121384
0.00010405
8.8303e-05
7.42534e-05
6.2582e-05
5.25277e-05
4.43169e-05
3.71532e-05
3.14126e-05
2.63351e-05
2.22868e-05
1.87132e-05
1.58756e-05
1.36547e-05
1.4775e-05
4.22613e-05
0.000195725
0.000582775
0.00149538
0.00253398
0.0032751
0.00258336
0.000778868
0.000128608
0.000126669
0.000150751
0.000152084
0.000170646
0.000179549
0.000196223
0.0001988
0.000176841
0.000156963
0.000138603
0.000120752
0.000103484
8.78331e-05
7.38323e-05
6.22104e-05
5.22022e-05
4.40337e-05
3.69095e-05
3.12015e-05
2.61551e-05
2.21323e-05
1.85835e-05
1.57869e-05
1.38078e-05
1.7034e-05
5.9028e-05
0.000250302
0.00069319
0.00169817
0.00269912
0.00336993
0.00259689
0.000783928
0.00014319
0.000130035
0.000153766
0.000155281
0.000173509
0.000181651
0.000198357
0.000197257
0.000175616
0.000156001
0.000137826
0.000120067
0.000102873
8.73215e-05
7.3374e-05
6.18038e-05
5.18458e-05
4.37207e-05
3.66401e-05
3.09658e-05
2.59543e-05
2.19585e-05
1.84405e-05
1.57105e-05
1.41888e-05
2.11122e-05
8.41798e-05
0.000317317
0.000820673
0.00184085
0.00285234
0.00344584
0.00260032
0.000785654
0.000147175
0.000133013
0.000156852
0.000158578
0.000176308
0.000183804
0.000200533
0.000195542
0.000174247
0.000154913
0.000136934
0.000119298
0.000102201
8.67652e-05
7.28849e-05
6.13762e-05
5.14774e-05
4.34021e-05
3.63708e-05
3.07339e-05
2.57605e-05
2.1794e-05
1.83109e-05
1.56705e-05
1.47665e-05
2.62636e-05
0.000111202
0.000379976
0.000943492
0.00196828
0.00298941
0.00351474
0.00261452
0.000791448
0.000146118
0.000135898
0.000159849
0.000161801
0.000178843
0.000185765
0.000202472
0.000193766
0.000172821
0.000153766
0.000135983
0.000118491
0.000101497
8.61804e-05
7.23715e-05
6.09267e-05
5.10905e-05
4.3066e-05
3.6087e-05
3.04883e-05
2.55551e-05
2.1619e-05
1.81792e-05
1.5683e-05
1.58123e-05
3.44069e-05
0.000147512
0.000455946
0.00108792
0.00212555
0.00314598
0.00355911
0.00262128
0.000793423
0.000145589
0.000139128
0.000163014
0.000165141
0.000181315
0.000187731
0.000204355
0.000191915
0.000171318
0.000152539
0.000134949
0.000117624
0.00010074
8.55443e-05
7.18114e-05
6.04327e-05
5.06637e-05
4.26922e-05
3.57627e-05
3.02104e-05
2.53228e-05
2.14211e-05
1.80449e-05
1.58235e-05
1.7889e-05
4.8282e-05
0.000198261
0.000552423
0.00126254
0.00227708
0.00328479
0.00359146
0.00261467
0.00079131
0.000144941
0.00014165
0.00016497
0.000167165
0.000182176
0.00018807
0.000204393
0.000189885
0.000169655
0.000151162
0.000133778
0.000116654
9.99038e-05
8.48434e-05
7.12007e-05
5.98979e-05
5.02064e-05
4.22937e-05
3.54288e-05
2.99167e-05
2.50706e-05
2.12208e-05
1.79377e-05
1.6169e-05
2.12221e-05
6.74407e-05
0.000256191
0.000656794
0.0014494
0.00242584
0.00341204
0.00362317
0.00260762
0.000787304
0.000143298
0.000145684
0.000168548
0.000170818
0.00018469
0.000190226
0.000206345
0.000187734
0.000167873
0.000149665
0.000132487
0.00011557
9.89908e-05
8.40723e-05
7.05279e-05
5.93061e-05
4.96994e-05
4.18491e-05
3.50552e-05
2.95884e-05
2.47911e-05
2.09948e-05
1.78751e-05
1.70206e-05
2.76106e-05
9.86636e-05
0.00033446
0.000789089
0.00166289
0.00258797
0.00353713
0.00364141
0.00259764
0.000782276
0.000139298
0.000150705
0.0001725
0.000174802
0.000187385
0.00019266
0.0002067
0.000185512
0.000166018
0.00014809
0.000131121
0.000114414
9.80458e-05
8.32725e-05
6.98322e-05
5.8695e-05
4.91768e-05
4.13915e-05
3.46717e-05
2.92517e-05
2.45147e-05
2.07864e-05
1.79405e-05
1.86264e-05
3.76951e-05
0.000139844
0.000421334
0.000931588
0.00188509
0.00274616
0.00364794
0.00365986
0.0025841
0.000774025
0.000143311
0.000155974
0.000176993
0.00017916
0.000190474
0.000195654
0.000203926
0.000183124
0.000164
0.000146354
0.000129597
0.000113109
9.69994e-05
8.2382e-05
6.90581e-05
5.80137e-05
4.85939e-05
4.08796e-05
3.4242e-05
2.88746e-05
2.42152e-05
2.06056e-05
1.83168e-05
2.20373e-05
5.57847e-05
0.000200342
0.000531538
0.00110332
0.00208344
0.00291078
0.00375403
0.00366655
0.00256696
0.000763681
0.000148078
0.000161981
0.000181999
0.000183889
0.000194037
0.000199297
0.000200975
0.000180572
0.000161822
0.000144456
0.000127918
0.000111662
9.58548e-05
8.14049e-05
6.82109e-05
5.7269e-05
4.79577e-05
4.03214e-05
3.37737e-05
2.84672e-05
2.39092e-05
2.05293e-05
1.93753e-05
2.87685e-05
8.57155e-05
0.000281138
0.000662139
0.00129915
0.00223619
0.00307555
0.00385153
0.00366817
0.0025431
0.000748632
0.000153499
0.000168724
0.000187508
0.000189049
0.000198192
0.000203709
0.000197924
0.000177918
0.00015953
0.000142435
0.000126111
0.000110095
9.46086e-05
8.03438e-05
6.72881e-05
5.64551e-05
4.72598e-05
3.97071e-05
3.32572e-05
2.80254e-05
2.3627e-05
2.07606e-05
2.21001e-05
4.26372e-05
0.000136569
0.000391995
0.000826159
0.00153277
0.00239212
0.00323738
0.00393687
0.00365639
0.00251242
0.000729641
0.000160193
0.00017689
0.000194225
0.000195288
0.000203657
0.000209588
0.000194717
0.00017511
0.000157075
0.000140245
0.000124136
0.000108368
9.31977e-05
7.91607e-05
6.62568e-05
5.55432e-05
4.64751e-05
3.90153e-05
3.26776e-05
2.75596e-05
2.34959e-05
2.19482e-05
2.91822e-05
7.21781e-05
0.000223093
0.000545825
0.00103835
0.00181424
0.0025706
0.00340552
0.00401772
0.00362992
0.00246161
0.000698373
0.000167677
0.000185388
0.000201032
0.000201883
0.000209957
0.000212056
0.000191442
0.000172233
0.000154542
0.000137966
0.000122071
0.000106551
9.1684e-05
7.78935e-05
6.51522e-05
5.45676e-05
4.56351e-05
3.8279e-05
3.2078e-05
2.71738e-05
2.38833e-05
2.54693e-05
4.50245e-05
0.00012621
0.000347706
0.000733544
0.00128515
0.00212072
0.00268373
0.00350469
0.00402647
0.00358615
0.00242662
0.00067792
0.000176315
0.000195619
0.000209751
0.000210064
0.000217727
0.000208938
0.000188666
0.000169782
0.000152362
0.000135989
0.000120267
0.000104953
9.03284e-05
7.67407e-05
6.41402e-05
5.3669e-05
4.4856e-05
3.75993e-05
3.15592e-05
2.70429e-05
2.53087e-05
3.30634e-05
7.42239e-05
0.000210091
0.000507489
0.000952669
0.00156222
0.00237587
0.00285546
0.00361843
0.00405306
0.00351201
0.00233
0.000624031
0.000182093
0.000201119
0.000213401
0.000214001
0.000222398
0.000206299
0.00018631
0.00016769
0.000150489
0.000134279
0.0001187
0.000103555
8.91267e-05
7.5704e-05
6.32223e-05
5.28482e-05
4.41393e-05
3.69846e-05
3.11636e-05
2.73561e-05
2.85005e-05
4.69659e-05
0.000120717
0.000321784
0.000687815
0.00118513
0.00184763
0.00217426
0.00275391
0.00350496
0.00377079
0.00326364
0.0021703
0.000575159
1.69593e-05
1.51133e-05
1.46875e-05
1.45045e-05
1.43714e-05
1.44908e-05
1.49101e-05
1.56225e-05
1.66612e-05
1.80833e-05
1.99578e-05
2.23872e-05
2.53931e-05
2.92816e-05
3.33094e-05
3.792e-05
4.31634e-05
3.8719e-05
3.14376e-05
2.56976e-05
2.11473e-05
1.75735e-05
1.46923e-05
1.2526e-05
1.06418e-05
9.42538e-06
8.04913e-06
7.10858e-06
6.1191e-06
5.63239e-06
5.52313e-06
6.9066e-06
8.04192e-06
4.70652e-07
1.6166e-05
1.45608e-05
1.43096e-05
1.41661e-05
1.40105e-05
1.40952e-05
1.44647e-05
1.51045e-05
1.60447e-05
1.7337e-05
1.90398e-05
2.1239e-05
2.40492e-05
2.79276e-05
3.16868e-05
3.56744e-05
4.05838e-05
3.85332e-05
3.13054e-05
2.55952e-05
2.10636e-05
1.74913e-05
1.46161e-05
1.24283e-05
1.05483e-05
9.35746e-06
7.99397e-06
7.13048e-06
6.09938e-06
5.61458e-06
5.35785e-06
6.68592e-06
7.92827e-06
4.57831e-07
1.50951e-05
1.37718e-05
1.35648e-05
1.34429e-05
1.33146e-05
1.34091e-05
1.37674e-05
1.43759e-05
1.5262e-05
1.64728e-05
1.80613e-05
2.02892e-05
2.2897e-05
2.6268e-05
2.97827e-05
3.38102e-05
3.83733e-05
3.84266e-05
3.12343e-05
2.55406e-05
2.10171e-05
1.74395e-05
1.45644e-05
1.23518e-05
1.0474e-05
9.28115e-06
7.94544e-06
7.14969e-06
6.09124e-06
5.60064e-06
5.17652e-06
6.38951e-06
7.78274e-06
4.31218e-07
1.45466e-05
1.32901e-05
1.30755e-05
1.29674e-05
1.28583e-05
1.29502e-05
1.32876e-05
1.38601e-05
1.46917e-05
1.59425e-05
1.74455e-05
1.937e-05
2.18051e-05
2.49436e-05