/*--------------------------------*- C++ -*----------------------------------*\
| =========                 |                                                 |
| \\      /  F ield         | OpenFOAM: The Open Source CFD Toolbox           |
|  \\    /   O peration     | Version:  2.3.0                                 |
|   \\  /    A nd           | Web:      www.OpenFOAM.org                      |
|    \\/     M anipulation  |                                                 |
\*---------------------------------------------------------------------------*/
FoamFile
{
    version     2.0;
    format      ascii;
    class       volScalarField;
    location    "200";
    object      p;
}
// * * * * * * * * * * * * * * * * * * * * * * * * * * * * * * * * * * * * * //

dimensions      [0 2 -2 0 0 0 0];

internalField   nonuniform List<scalar> 
28552
(
650.769
672.964
695.449
717.333
740.586
765.157
790.565
816.691
843.407
870.384
897.147
923.004
947.013
967.841
982.831
990.087
989.016
979.521
961.88
936.434
904.351
865.663
823.74
774.966
730.13
674.364
631.811
572.254
542.488
476.078
477.182
392.06
445.661
367.2
610.143
632.21
652.883
672.279
692.913
714.503
736.571
759.065
781.835
804.536
826.699
847.65
866.469
881.86
891.513
894.088
889.234
876.973
857.658
831.593
799.991
762.592
722.994
676.93
635.11
583.594
544.587
489.256
462.464
398.628
399.373
315.356
347.025
286.212
567.203
587.998
606.311
623.103
641.152
659.876
678.8
697.914
717.031
735.787
753.723
770.188
784.305
794.847
799.849
798.387
790.273
775.619
754.853
728.234
697.036
660.665
622.916
579.033
539.305
490.382
453.004
399.095
371.17
305.474
296.146
206.347
203.762
129.023
521.166
540.278
556.025
570.29
585.839
601.784
617.706
633.628
649.322
664.418
678.464
690.837
700.723
706.968
707.916
702.975
692.06
675.325
653.249
626.031
595.015
559.319
522.834
480.588
442.259
395.059
358.459
305.311
276.347
209.781
196.124
113.928
99.938
16.4414
473.476
491.309
504.686
516.508
529.577
542.8
555.822
568.68
581.112
592.748
603.156
611.723
617.66
619.889
617.057
608.887
595.394
576.763
553.517
525.771
494.949
459.897
424.658
384.097
347.807
303.148
269.626
220.204
195.827
136.548
127.477
61.0895
60.291
2.58127
425.329
441.708
452.767
462.333
472.993
483.572
493.809
503.725
513.035
521.38
528.342
533.339
535.627
534.193
527.962
516.941
501.224
481.013
456.869
428.835
398.413
364.268
330.488
291.979
257.936
216.308
185.606
139.921
118.433
64.5834
56.0252
-3.25514
-7.06474
-60.502
376.988
391.9
400.653
408.071
416.407
424.442
432.009
439.111
445.447
450.673
454.389
456.039
454.932
450.114
440.771
427.163
409.457
387.857
362.966
334.731
304.716
271.388
238.879
201.985
169.813
130.283
102.015
58.9174
39.6667
-9.72585
-17.5202
-69.235
-71.8366
-116.278
329.281
342.428
349.011
354.267
360.302
365.872
370.875
375.285
378.79
381.065
381.726
380.247
375.983
368.046
355.867
339.932
320.461
297.649
272.135
243.782
214.204
181.729
150.453
115.207
84.7205
47.3529
20.7414
-19.8008
-37.9985
-83.4902
-91.6351
-138.525
-141.63
-177.826
282.565
294.06
298.399
301.543
305.365
308.57
311.124
312.969
313.791
313.284
311.076
306.673
299.476
288.656
273.876
255.828
234.788
210.94
184.953
156.593
127.507
95.8696
65.7235
31.8376
2.75341
-33.1264
-58.4241
-97.6156
-116.047
-160.349
-171.644
-217.909
-230.653
-272.399
237.139
246.845
248.88
250.168
251.918
252.863
253.074
252.465
250.724
247.565
242.633
235.467
225.513
212
194.807
174.812
152.331
127.538
101.142
72.8412
44.342
13.7506
-14.9466
-46.8938
-73.91
-107.152
-130.304
-166.01
-182.783
-222.084
-232.954
-271.905
-281.138
-319.088
193.195
201.08
200.896
200.512
200.261
199.046
197.041
194.105
189.941
184.283
176.791
167.031
154.496
138.462
119.011
97.1926
73.3706
47.7043
20.9494
-7.26821
-35.1858
-64.7562
-92.0114
-122.041
-146.703
-176.946
-196.653
-228.115
-240.733
-273.694
-280.017
-311.825
-312.8
-341.547
150.808
157.211
154.961
152.886
150.656
147.361
143.224
138.052
131.568
123.525
113.6
101.393
86.4337
68.0494
46.5037
22.9858
-2.12364
-28.6977
-55.9514
-84.3261
-111.988
-140.936
-167.133
-195.671
-218.485
-246.348
-263.516
-290.865
-299.822
-326.059
-326.945
-350.188
-344.959
-358.19
110.989
115.701
111.434
107.755
103.632
98.3767
92.2301
84.9581
76.3105
66.0529
53.8788
39.4149
22.2328
1.69978
-21.7511
-46.8047
-73.0659
-100.462
-128.224
-156.918
-184.811
-214.018
-240.837
-270.227
-294.751
-324.472
-345.322
-376.568
-393.555
-427.209
-441.581
-477.137
-494.426
-524.808
73.3756
76.4192
70.2292
65.0045
59.0361
51.8928
43.8127
34.5256
23.8097
11.4449
-2.85807
-19.4386
-38.6867
-61.1915
-86.365
-112.798
-140.102
-168.267
-196.547
-225.589
-253.683
-282.925
-309.658
-338.742
-362.962
-392.063
-412.63
-442.517
-458.445
-488.844
-500.262
-527.886
-538.597
-567.305
38.1844
39.5054
31.4885
24.7638
17.0177
8.07653
-1.84882
-13.0533
-25.7295
-40.0899
-56.4051
-74.9898
-96.1961
-120.573
-147.371
-175.046
-203.147
-231.644
-259.69
-287.917
-314.527
-341.644
-365.627
-391.232
-411.485
-435.582
-450.65
-473.381
-482.349
-503.613
-507.583
-525.363
-525.85
-540.202
5.48267
5.09056
-4.57904
-12.7525
-22.1852
-32.8134
-44.4705
-57.4607
-71.9487
-88.1333
-106.264
-126.62
-149.515
-175.455
-203.556
-232.217
-261.012
-289.986
-318.373
-346.907
-373.879
-401.319
-425.739
-451.678
-472.709
-497.483
-514.616
-539.29
-552.599
-577.428
-588.228
-612.358
-623.337
-642.715
-24.6293
-26.7191
-37.9744
-47.487
-58.5102
-70.7081
-83.9794
-98.6251
-114.78
-132.637
-152.425
-174.402
-198.855
-226.277
-255.691
-285.45
-315.148
-344.883
-373.864
-402.87
-430.269
-458.182
-483.387
-510.283
-532.681
-558.74
-577.589
-603.162
-618.067
-642.65
-654.395
-676.006
-686.78
-707.971
-52.506
-56.2571
-68.9422
-79.777
-92.3186
-106.004
-120.809
-137.015
-154.733
-174.137
-195.428
-218.824
-244.56
-273.061
-303.202
-333.28
-362.863
-392.097
-420.22
-448.031
-473.962
-500.126
-523.301
-547.518
-567.02
-589.427
-604.676
-625.704
-636.628
-656.132
-663.938
-680.261
-687.304
-700.802
-77.8684
-83.1892
-97.1345
-109.152
-123.043
-138.029
-154.172
-171.722
-190.764
-211.461
-233.986
-258.53
-285.288
-314.657
-345.423
-375.863
-405.565
-434.71
-462.524
-489.875
-515.147
-540.403
-562.654
-586.172
-605.291
-627.587
-643.331
-664.692
-677.176
-697.385
-707.696
-725.174
-734.683
-752.302
-100.773
-107.53
-122.598
-135.635
-150.697
-166.784
-184.058
-202.728
-222.861
-244.609
-268.118
-293.548
-321.057
-350.988
-382.027
-412.428
-441.726
-470.171
-496.932
-522.958
-546.617
-570.173
-590.302
-611.208
-627.033
-645.563
-656.821
-673.224
-680.232
-694.19
-698.377
-708.065
-709.912
-716.547
-121.361
-129.37
-145.297
-159.136
-175.113
-192.024
-210.131
-229.599
-250.48
-272.916
-297.026
-322.955
-350.831
-380.995
-412.1
-442.461
-471.672
-500.057
-526.839
-553.077
-577.091
-601.202
-622.331
-645.005
-663.515
-685.459
-701.498
-723.081
-737.253
-758.43
-771.848
-791.817
-806.558
-824.525
-139.721
-148.831
-165.451
-179.935
-196.661
-214.211
-232.97
-253.042
-274.478
-297.407
-321.937
-348.194
-376.298
-406.572
-437.644
-467.858
-496.757
-524.744
-550.903
-576.368
-599.353
-622.286
-641.729
-662.316
-677.969
-696.433
-708.231
-724.672
-732.954
-746.909
-753.223
-763.724
-768.821
-777.76
-155.984
-166.026
-183.167
-198.139
-215.428
-233.433
-252.645
-273.112
-294.879
-318.066
-342.753
-369.05
-397.032
-426.996
-457.512
-486.971
-514.909
-541.772
-566.696
-590.908
-612.476
-633.947
-651.804
-670.875
-684.968
-702.1
-712.63
-728.15
-735.815
-749.359
-755.878
-766.456
-772.477
-779.52
-170.14
-180.985
-198.46
-213.775
-231.471
-249.752
-269.246
-289.922
-311.835
-335.088
-359.75
-385.913
-413.644
-443.227
-473.253
-502.2
-529.617
-556.061
-580.572
-604.567
-626.176
-648.203
-667.05
-687.658
-703.837
-723.425
-737.116
-755.81
-767.5
-784.565
-795.477
-809.468
-820.727
-833.663
-182.285
-193.817
-211.445
-227.04
-244.988
-263.438
-283.088
-303.851
-325.794
-349.009
-373.548
-399.508
-426.931
-456.11
-485.607
-513.951
-540.633
-566.23
-589.693
-612.416
-632.367
-652.371
-668.658
-686.161
-698.678
-713.995
-722.84
-735.875
-741.597
-751.704
-755.861
-761.882
-764.314
-768.224
-192.42
-204.535
-222.268
-238.001
-256.093
-274.579
-294.261
-314.98
-336.822
-359.86
-384.139
-409.737
-436.682
-465.237
-493.966
-521.469
-547.224
-571.918
-594.487
-616.496
-635.748
-655.198
-670.979
-688.293
-700.763
-716.422
-726.056
-740.418
-748.451
-761.165
-769.32
-779.951
-787.964
-794.492
-200.942
-213.485
-231.182
-246.961
-265.082
-283.489
-303.084
-323.633
-345.242
-367.972
-391.853
-416.97
-443.334
-471.241
-499.28
-526.186
-551.444
-575.813
-598.207
-620.267
-639.89
-660.136
-677.176
-696.059
-710.506
-728.277
-740.271
-756.639
-766.957
-781.07
-790.673
-801.475
-811.522
-820.407
-207.771
-220.664
-238.24
-253.998
-272.062
-290.319
-309.755
-330.064
-351.383
-373.75
-397.198
-421.803
-447.572
-474.788
-502.052
-528.149
-552.501
-575.942
-597.222
-618.128
-636.277
-654.968
-669.975
-686.837
-698.864
-714.032
-723.373
-736.585
-743.863
-754.353
-761.027
-768.008
-773.263
-777.204
-212.967
-226.131
-243.515
-259.172
-277.1
-295.124
-314.32
-334.304
-355.242
-377.15
-400.046
-423.999
-448.977
-475.259
-501.412
-526.338
-549.416
-571.553
-591.51
-611.133
-628.016
-645.553
-659.53
-675.44
-686.806
-701.53
-710.952
-724.497
-733.177
-745.081
-754.299
-764.469
-774.144
-781.671
-216.67
-230.02
-247.129
-262.64
-280.364
-298.095
-316.994
-336.592
-357.097
-378.493
-400.801
-424.077
-448.278
-473.673
-498.851
-522.794
-544.845
-565.977
-584.82
-603.317
-618.933
-635.083
-647.47
-661.499
-670.732
-682.712
-689.194
-698.882
-703.544
-710.313
-714.242
-717.415
-719.899
-722.805
-218.893
-232.348
-249.122
-264.432
-281.88
-299.27
-317.813
-336.977
-357.006
-377.859
-399.555
-422.152
-445.581
-470.128
-494.358
-517.367
-538.407
-558.537
-576.31
-593.749
-608.17
-623.122
-634.195
-646.948
-654.911
-665.654
-671.113
-679.704
-683.686
-689.662
-693.595
-696.567
-698.943
-700.805
-219.708
-233.212
-249.587
-264.648
-281.761
-298.754
-316.893
-335.576
-355.09
-375.368
-396.435
-418.349
-441.039
-464.799
-488.239
-510.538
-530.965
-550.656
-568.127
-585.59
-600.335
-616.076
-628.423
-643.004
-653.466
-667.231
-676.543
-689.274
-698.23
-709.089
-718.509
-727.957
-737.247
-743.145
-219.274
-232.766
-248.712
-263.482
-280.225
-296.791
-314.493
-332.666
-351.643
-371.327
-391.754
-412.987
-434.945
-457.964
-480.658
-502.354
-522.245
-541.585
-558.795
-576.135
-590.822
-606.612
-618.962
-633.431
-643.629
-656.69
-665.148
-676.43
-684.016
-692.936
-700.357
-706.461
-712.672
-716.907
-217.684
-231.102
-246.574
-261.023
-277.361
-293.463
-310.702
-328.334
-346.748
-365.811
-385.574
-406.097
-427.291
-449.497
-471.35
-492.225
-511.292
-529.799
-546.119
-562.523
-576.157
-590.747
-601.798
-614.744
-623.452
-634.743
-641.688
-651.079
-657.182
-664.151
-670.592
-675.862
-680.83
-684.605
-214.895
-228.19
-243.159
-257.263
-273.151
-288.77
-305.511
-322.576
-340.398
-358.808
-377.866
-397.624
-417.968
-439.241
-460.047
-479.861
-497.748
-515.043
-529.997
-544.988
-557.037
-570.005
-579.337
-590.507
-597.5
-606.878
-612.028
-619.303
-623.538
-628.243
-632.038
-634.042
-636.651
-638.715
-210.964
-224.099
-238.53
-252.256
-267.665
-282.765
-298.978
-315.442
-332.641
-350.365
-368.688
-387.651
-407.125
-427.456
-447.265
-466.116
-483.067
-499.512
-513.682
-528.074
-539.679
-552.422
-561.754
-573.126
-580.664
-590.84
-597.376
-606.206
-612.697
-619.903
-626.99
-632.333
-637.89
-641.68
-206.028
-218.94
-232.817
-246.138
-261.036
-275.601
-291.264
-307.112
-323.678
-340.714
-358.312
-376.507
-395.167
-414.662
-433.631
-451.761
-468.06
-484.027
-497.826
-511.97
-523.424
-536.095
-545.467
-556.855
-564.49
-574.506
-580.935
-589.155
-594.996
-600.96
-606.818
-610.599
-614.791
-617.9
-200.12
-212.769
-226.066
-238.976
-253.335
-267.356
-282.453
-297.68
-313.611
-329.964
-346.851
-364.304
-382.19
-400.894
-419.081
-436.505
-452.15
-467.492
-480.673
-494.219
-505.023
-516.992
-525.618
-536.112
-542.902
-551.846
-557.412
-564.569
-569.694
-574.721
-579.988
-583.196
-586.963
-589.87
-193.265
-205.611
-218.314
-230.798
-244.593
-258.063
-272.578
-287.176
-302.466
-318.131
-334.305
-351.008
-368.1
-385.97
-403.279
-419.856
-434.616
-449.117
-461.402
-474.119
-484.145
-495.342
-503.327
-513.173
-519.539
-528.006
-533.398
-540.265
-545.435
-550.402
-555.753
-558.863
-562.643
-565.53
-185.483
-197.489
-209.587
-221.629
-234.84
-247.752
-261.67
-275.632
-290.269
-305.236
-320.683
-336.616
-352.889
-369.893
-386.31
-402.045
-416.017
-429.797
-441.463
-453.594
-463.145
-473.92
-481.641
-491.195
-497.477
-505.684
-511.046
-517.598
-522.645
-527.115
-532.393
-535.605
-539.175
-541.988
-176.883
-188.508
-199.986
-211.577
-224.184
-236.532
-249.836
-263.155
-277.132
-291.397
-306.118
-321.293
-336.773
-352.958
-368.548
-383.52
-396.741
-409.822
-420.757
-432.181
-440.982
-450.978
-457.924
-466.562
-472.005
-479.179
-483.629
-489.075
-493.254
-496.681
-500.642
-502.473
-504.801
-506.495
-167.5
-178.713
-189.565
-200.684
-212.667
-224.442
-237.118
-249.79
-263.102
-276.667
-290.67
-305.098
-319.801
-335.181
-349.955
-364.163
-376.655
-389.055
-399.39
-410.264
-418.644
-428.232
-435.006
-443.529
-449.236
-456.742
-462.025
-468.289
-473.825
-478.823
-484.539
-488.469
-492.812
-496.05
-157.308
-168.078
-178.305
-188.94
-200.291
-211.492
-223.533
-235.561
-248.209
-261.083
-274.38
-288.078
-302.033
-316.648
-330.673
-344.201
-356.069
-367.903
-377.696
-388.035
-395.922
-404.888
-411.009
-418.549
-423.143
-429.039
-432.543
-436.496
-439.331
-441.265
-443.826
-444.301
-444.902
-445.625
-146.389
-156.682
-166.273
-176.404
-187.108
-197.726
-209.119
-220.497
-232.477
-244.658
-257.251
-270.227
-283.445
-297.314
-310.599
-323.459
-334.69
-345.942
-355.197
-365.004
-372.407
-380.889
-386.656
-393.879
-398.421
-404.344
-408.284
-412.852
-416.866
-419.892
-423.915
-426.467
-428.931
-430.562
-134.809
-144.59
-153.539
-163.152
-173.195
-183.22
-193.95
-204.672
-215.971
-227.454
-239.338
-251.589
-264.073
-277.201
-289.782
-302.023
-312.735
-323.565
-332.54
-342.209
-349.734
-358.502
-364.931
-372.967
-378.779
-386.009
-391.591
-397.661
-403.388
-408.399
-413.633
-417.324
-421.202
-424.186
-122.542
-131.793
-140.104
-149.179
-158.551
-167.977
-178.035
-188.098
-198.713
-209.497
-220.672
-232.201
-243.955
-256.352
-268.229
-279.853
-290.032
-300.404
-309
-318.289
-325.469
-333.732
-339.586
-346.685
-351.374
-357.038
-360.897
-364.807
-368.093
-370.054
-372.647
-373.849
-374.629
-375.369
-109.575
-118.266
-125.93
-134.445
-143.136
-151.948
-161.32
-170.713
-180.629
-190.704
-201.156
-211.945
-222.945
-234.568
-245.686
-256.593
-266.09
-275.801
-283.772
-292.423
-299.039
-306.728
-312.209
-319.003
-323.753
-329.654
-334.247
-339.233
-344.255
-348.306
-353.253
-357.087
-360.406
-362.88
-95.9891
-104.098
-111.109
-119.042
-127.04
-135.224
-143.896
-152.608
-161.813
-171.167
-180.882
-190.913
-201.134
-211.941
-222.235
-232.343
-241.075
-250.032
-257.334
-265.351
-271.53
-278.817
-284.189
-290.905
-295.899
-302.016
-307.058
-312.298
-317.722
-322.134
-326.751
-330.218
-333.481
-336.444
-81.7607
-89.2697
-95.6221
-102.954
-110.25
-117.792
-125.753
-133.777
-142.262
-150.889
-159.86
-169.13
-178.565
-188.548
-198.009
-207.302
-215.241
-223.372
-229.837
-236.862
-241.991
-247.924
-251.805
-256.544
-259.333
-262.672
-264.576
-266.16
-267.393
-267.604
-268.394
-268.206
-267.832
-268.158
-66.9354
-73.808
-79.4864
-86.188
-92.7634
-99.6429
-106.878
-114.199
-121.951
-129.845
-138.071
-146.585
-155.255
-164.454
-173.13
-181.655
-188.82
-196.121
-201.712
-207.719
-211.771
-216.434
-219.053
-222.383
-223.89
-225.913
-226.887
-227.751
-228.684
-228.687
-229.318
-229.403
-229.374
-229.498
-51.6053
-57.803
-62.792
-68.8411
-74.676
-80.8701
-87.3554
-93.958
-100.963
-108.119
-115.603
-123.378
-131.316
-139.791
-147.794
-155.729
-162.405
-169.293
-174.626
-180.466
-184.594
-189.446
-192.56
-196.482
-198.879
-201.802
-203.818
-205.53
-207.39
-208.279
-209.455
-209.967
-210.255
-210.429
-35.7652
-41.2604
-45.5499
-50.9141
-55.9878
-61.47
-67.1835
-73.0471
-79.2887
-85.6989
-92.4434
-99.5043
-106.762
-114.611
-122.104
-129.688
-136.202
-143.114
-148.703
-154.978
-159.783
-165.445
-169.586
-174.596
-178.27
-182.472
-185.989
-189.143
-192.326
-194.627
-197.289
-199.221
-200.766
-201.448
-19.3748
-24.1354
-27.7071
-32.3519
-36.6404
-41.3815
-46.2963
-51.3925
-56.8435
-62.4851
-68.4733
-74.8124
-81.401
-88.6537
-95.6956
-103.004
-109.45
-116.471
-122.414
-129.218
-134.858
-141.54
-147.081
-153.72
-159.476
-166.028
-172.386
-178.9
-185.9
-192.083
-198.35
-203.538
-208.336
-212.195
-2.49586
-6.4763
-9.30637
-13.1941
-16.6687
-20.6283
-24.7042
-28.9909
-33.6046
-38.4289
-43.6045
-49.1562
-54.9929
-61.5337
-67.9599
-74.7519
-80.7963
-87.4409
-93.0706
-99.4704
-104.678
-110.662
-115.334
-120.621
-124.665
-128.795
-132.058
-134.671
-137.081
-138.259
-139.337
-139.447
-139.359
-139.819
14.912
11.6934
9.61382
6.52354
3.90129
0.78071
-2.39899
-5.81026
-9.51258
-13.4351
-17.6966
-22.3367
-27.2614
-32.8756
-38.4004
-44.314
-49.5056
-55.232
-59.9186
-65.2299
-69.3132
-74.0083
-77.4321
-81.3857
-84.3072
-87.5017
-90.2646
-92.7573
-95.5492
-97.6113
-100.002
-101.841
-103.447
-104.868
32.5542
30.266
29.0123
26.7919
25.0788
22.8641
20.6478
18.1905
15.4878
12.5668
9.33473
5.73801
1.87743
-2.63686
-7.08088
-11.9561
-16.186
-20.9746
-24.8398
-29.3727
-32.8721
-37.0715
-40.2823
-44.1257
-47.2046
-50.6184
-53.771
-56.688
-59.5845
-61.6165
-63.9017
-65.53
-66.9219
-68.2918
50.6041
49.223
48.8585
47.583
46.8394
45.6004
44.4222
43.0039
41.3934
39.5747
37.4811
35.0406
32.3553
29.0392
25.7374
21.9081
18.5849
14.624
11.4421
7.56119
4.60185
1.01098
-1.62088
-4.69274
-6.91385
-9.16974
-10.9272
-12.2317
-13.6922
-14.2725
-14.8263
-14.8581
-14.736
-14.8333
69.0627
68.6072
69.1486
68.8595
69.1324
68.9385
68.8748
68.5832
68.1604
67.5478
66.7029
65.5314
64.1325
62.1194
60.0468
57.3299
54.9651
51.8835
49.4301
46.242
43.8493
40.7871
38.4994
35.7116
33.5063
31.0555
28.7746
26.7922
24.2901
22.4051
20.5668
19.088
17.7991
16.8568
87.7987
88.3339
89.8125
90.5584
91.8985
92.8194
93.9475
94.8753
95.7441
96.4539
96.9864
97.2234
97.2608
96.7105
96.0237
94.5593
93.2557
91.0991
89.4389
86.8932
84.818
81.9598
79.6238
76.6448
74.0269
71.0947
68.1398
65.4653
62.714
60.5528
58.3563
56.6267
55.0753
53.7449
106.702
108.283
110.739
112.581
115.047
117.158
119.564
121.814
124.092
126.26
128.327
130.15
131.825
132.964
133.906
133.942
133.966
133.012
132.231
130.545
129.532
127.636
126.023
123.966
122.32
120.588
118.971
117.724
116.241
115.254
114.457
114.018
113.66
113.24
125.7
128.353
131.817
134.812
138.463
141.847
145.617
149.297
153.112
156.892
160.672
164.292
167.849
170.967
173.86
175.732
177.424
178.072
178.747
178.394
178.165
177.147
176.667
175.429
174.364
173.04
171.373
169.91
168.008
166.384
164.967
163.791
162.691
161.717
144.656
148.416
152.901
157.097
161.984
166.716
171.937
177.156
182.643
188.198
193.889
199.543
205.267
210.7
215.921
220.022
223.768
226.355
228.787
230.158
231.401
231.687
231.996
231.664
231.433
230.898
230.318
230.077
229.382
228.879
228.552
228.343
228.15
227.905
163.368
168.215
173.78
179.227
185.393
191.537
198.283
205.142
212.427
219.918
227.72
235.658
243.852
251.969
259.935
266.701
272.936
277.877
282.415
285.75
288.787
290.802
292.512
293.375
294.017
294.292
294.081
293.891
293.427
293.017
292.618
292.181
291.686
291.235
181.712
187.644
194.298
201.004
208.47
216.068
224.388
232.968
242.155
251.723
261.825
272.291
283.269
294.472
305.665
315.631
324.931
332.845
340.131
346.05
351.41
355.581
359.324
362.116
364.43
366.283
367.55
368.548
369.168
369.712
370.107
370.339
370.416
370.432
199.522
206.519
214.237
222.177
230.932
239.988
249.894
260.233
271.382
283.127
295.674
308.878
322.937
337.636
352.593
366.395
379.487
391.177
402.078
411.496
420.106
427.3
433.754
439.008
443.494
447.26
450.139
452.499
454.148
455.349
456.155
456.59
456.72
456.792
216.525
224.538
233.271
242.39
252.387
262.858
274.308
286.386
299.49
313.439
328.5
344.577
361.939
380.487
399.73
418.053
435.792
452.28
467.978
482.22
495.53
507.308
518.088
527.438
535.745
543.042
549.091
554.222
558.234
561.374
563.674
565.185
566.039
566.566
232.304
241.205
250.82
260.955
272.036
283.74
296.553
310.17
325.024
340.966
358.336
377.101
397.626
419.953
443.548
466.612
489.421
511.311
532.626
552.673
571.832
589.453
605.927
620.763
634.282
646.449
656.932
665.87
672.959
678.556
682.771
685.745
687.745
689.18
245.483
255.037
265.315
276.22
288.134
300.768
314.614
329.392
345.579
363.044
382.208
403.077
426.122
451.522
478.78
505.992
533.472
560.623
587.816
614.414
640.789
666.312
691.309
715.207
738.156
759.894
779.784
797.809
812.903
824.718
833.545
839.625
843.256
845.231
255.425
265.465
276.217
287.591
300.061
313.279
327.823
343.35
360.405
378.858
399.156
421.378
446.037
473.48
503.165
533.259
564.024
595.036
626.587
658.164
689.986
721.435
752.637
782.947
812.189
840.071
866.048
888.396
906.354
922.811
938.63
952.425
962.722
968.625
691.649
716.627
741.641
765.414
790.649
817.551
845.498
874.368
904.102
934.41
964.838
994.72
1023.12
1048.68
1068.47
1080.28
1083.4
1077.59
1063.01
1039.9
1009.26
971.232
928.76
878.93
831.311
772.146
725.211
659.358
621.45
546.944
535.538
437.89
485.744
376.264
731.006
758.275
785.425
810.816
837.845
866.825
897.03
928.361
960.824
994.174
1028
1061.68
1094.34
1124.66
1149.57
1166.62
1174.81
1173.74
1163.36
1143.82
1115.93
1079.93
1038.25
988.775
939.409
878.43
829.705
757.897
715.79
628.242
607.548
489.452
507.159
336.805
771.117
799.673
828.464
855.715
884.704
915.85
948.466
982.458
1017.88
1054.54
1092.09
1129.97
1167.37
1203.08
1233.88
1256.8
1270.72
1275.09
1269.71
1254.59
1230.29
1197.15
1157.12
1108.84
1058.76
997.209
946.879
871.781
825.679
730.773
707.763
579.752
595.192
442.304
812.034
841.688
872.015
901.192
932.175
965.477
1000.51
1037.2
1075.63
1115.68
1157.08
1199.34
1241.75
1283.23
1320.4
1349.92
1370.55
1381.5
1382.29
1372.75
1353.2
1323.97
1286.67
1240.61
1191.13
1130.89
1078.41
1002.07
954.472
855.13
826.18
684.792
680.889
488.684
851.884
882.644
914.46
945.595
978.629
1014.13
1051.65
1091.14
1132.72
1176.35
1221.83
1268.79
1316.62
1364.4
1408.67
1445.69
1473.93
1492.38
1500.39
1497.56
1483.93
1459.7
1426.09
1382.87
1334.4
1275.21
1220.68
1145.56
1099.86
1002.63
980.22
841.872
849.537
683.491
891.169
923.005
956.18
989.199
1024.27
1061.97
1101.96
1144.26
1189.02
1236.27
1285.93
1337.74
1391.23
1445.69
1497.53
1542.67
1579.46
1606.68
1623.37
1628.78
1622.61
1604.81
1576.18
1536.76
1489.91
1431.69
1375.13
1300.35
1250.9
1154.1
1130.71
1000.28
1034.24
889.264
927.862
960.621
995.045
1029.91
1066.98
1106.8
1149.19
1194.22
1242.1
1292.97
1346.83
1403.56
1462.88
1524.33
1584.35
1638.52
1685
1722.29
1749.15
1764.56
1767.87
1758.71
1737.38
1703.87
1660.45
1604.4
1546.31
1468.97
1411.33
1310.36
1273.69
1130.5
1160.85
980.934
961.561
995.167
1030.67
1067.19
1106.06
1147.82
1192.41
1240
1290.83
1345.12
1403.01
1464.54
1529.63
1598.09
1666.4
1729.88
1786.61
1835.03
1873.67
1901.18
1916.42
1918.55
1907.33
1882.5
1845.41
1794.43
1737.05
1658.75
1592.83
1483.93
1433.26
1267.93
1267.82
1009.98
991.445
1025.71
1062.09
1100.07
1140.6
1184.11
1230.71
1280.62
1334.16
1391.62
1453.28
1519.35
1589.95
1665.25
1741.85
1814.95
1882.66
1943.21
1994.89
2036.02
2065.09
2080.86
2082.51
2069.35
2041.82
1998.64
1944.61
1870.09
1800.68
1685.91
1626.29
1451.9
1438.65
1166.25
1016.8
1051.61
1088.7
1127.94
1169.88
1214.88
1263.17
1315.08
1370.96
1431.21
1496.22
1566.39
1642.06
1723.73
1808.22
1890.68
1969.24
2042.12
2107.55
2163.7
2208.76
2241.01
2258.98
2261.34
2247.65
2216.52
2170.74
2103.38
2032.9
1918.15
1849.05
1665.69
1640.3
1332.39
1036.8
1071.94
1109.45
1149.59
1192.59
1238.72
1288.31
1341.77
1399.49
1461.97
1529.7
1603.24
1683.17
1770.32
1861.79
1952.85
2041.84
2127.07
2206.78
2279.03
2341.74
2392.78
2430.12
2451.85
2456.54
2442.26
2409.86
2353.7
2286.6
2178.57
2103.15
1907.85
1875.09
1562.4
1050.26
1085.61
1123.28
1163.96
1207.65
1254.49
1304.91
1359.36
1418.32
1482.31
1551.96
1627.96
1711.1
1802.51
1899.62
1997.96
2096.12
2192.6
2285.82
2373.9
2454.72
2525.97
2585.26
2630.04
2658
2666.4
2654.43
2616.87
2561.4
2465
2379.19
2181.24
2129.89
1761.99
1056.8
1092.14
1129.66
1170.44
1214.35
1261.41
1312.09
1366.9
1426.36
1491.04
1561.63
1638.95
1723.94
1817.98
1918.85
2022.46
2127.72
2233.45
2338.34
2440.8
2538.92
2630.45
2712.88
2783.38
2838.95
2876.1
2892.1
2881.24
2846.45
2767.91
2684.81
2494.58
2432.76
2050.37
1056.21
1091.27
1128.34
1168.82
1212.5
1259.29
1309.67
1364.2
1423.41
1487.91
1558.43
1635.87
1721.26
1816.16
1918.7
2025.26
2135.14
2247.48
2361.39
2475.68
2588.85
2699.02
2803.88
2900.58
2985.84
3055.58
3105.71
3129.9
3126.84
3078.6
3010.61
2839.28
2761.83
2351.38
1047.55
1082.06
1118.38
1158.15
1201.1
1247.1
1296.59
1350.15
1408.33
1471.72
1541.06
1617.28
1701.46
1795.23
1897.06
2003.85
2115.24
2230.76
2349.92
2472.04
2596.14
2720.92
2844.6
2964.91
3078.9
3182.68
3271.73
3339.2
3380.27
3377.65
3343.75
3210.18
3119.6
2682.76
1031.87
1065.52
1100.79
1139.44
1181.21
1225.91
1273.95
1325.91
1382.31
1443.73
1510.9
1584.71
1666.25
1757.13
1856.09
1960.59
2070.56
2185.84
2306.35
2431.89
2562.1
2696.36
2833.7
2972.71
3111.29
3246.39
3373.87
3487.23
3579.87
3635.32
3655.19
3578.65
3505.45
3098.35
1008.77
1041.34
1075.34
1112.57
1152.79
1195.79
1241.92
1291.74
1345.75
1404.49
1468.63
1539.02
1616.68
1703.13
1797.35
1897.33
2003.22
2115.14
2233.29
2357.91
2489.15
2627.05
2771.49
2922.05
3077.89
3237.34
3397.74
3554.22
3700.36
3821.92
3911.5
3913.89
3889.62
3542.61
979.559
1010.76
1043.21
1078.66
1116.92
1157.77
1201.54
1248.72
1299.76
1355.17
1415.54
1481.64
1554.39
1635.14
1723.09
1816.73
1916.36
2022.25
2134.84
2254.64
2382.21
2518.13
2662.96
2817.25
2981.35
3155.23
3338.2
3528.02
3720.77
3906.34
4074.19
4180.63
4235.41
4001.98
943.455
973.198
1004.08
1037.67
1073.86
1112.44
1153.68
1198
1245.83
1297.59
1353.82
1415.18
1482.46
1556.83
1637.67
1723.93
1815.99
1914.23
2019.2
2131.59
2252.19
2381.92
2521.84
2673.17
2837.24
3015.42
3208.94
3418.41
3643.37
3879.36
4118.46
4332.65
4498.42
4477.86
904.179
932.185
961.176
992.599
1026.4
1062.38
1100.78
1141.94
1186.24
1234.05
1285.8
1342.08
1403.54
1471.15
1544.46
1622.8
1706.61
1796.31
1892.51
1995.96
2107.59
2228.49
2359.98
2503.67
2661.48
2835.72
3029.07
3244.4
3484.61
3751.02
4042.15
4343.76
4625.21
4798.24
859.678
886.033
913.293
942.643
974.084
1007.49
1043.05
1081.07
1121.81
1165.56
1212.7
1263.71
1319.16
1379.78
1445.31
1515.42
1590.56
1671.14
1757.77
1851.25
1952.49
2062.61
2182.99
2315.31
2461.69
2624.79
2807.92
3015.23
3251.85
3523.36
3835.26
4187.28
4562.77
4878.68
809.209
833.671
859.115
886.286
915.25
945.958
978.561
1013.43
1050.68
1090.54
1133.2
1179.12
1228.75
1282.64
1340.63
1402.74
1469.39
1540.99
1618.12
1701.52
1792.06
1890.82
1999.14
2118.68
2251.44
2399.95
2567.44
2758.03
2977.02
3230.84
3527.22
3872.87
4256.5
4653.28
766.315
789.032
812.453
837.448
864.079
892.289
922.267
954.167
988.095
1024.21
1062.82
1104.31
1148.94
1197.09
1248.87
1304.45
1364.2
1428.49
1497.85
1572.93
1654.5
1743.47
1841
1948.58
2067.9
2201.11
2350.89
2520.62
2714.27
2936.64
3191.25
3477.62
3774.74
3943.99
705.84
726.96
748.992
772.026
796.284
821.901
849.007
877.553
907.705
939.594
973.572
1009.78
1048.36
1089.53
1133.39
1180.55
1231.45
1286.45
1346.05
1410.87
1481.61
1559.18
1644.73
1739.45
1844.63
1961.86
2093.08
2240.15
2405.6
2587.55
2790.39
2963.34
3157
2664.8
8.41966
8.42421
8.44617
8.48719
8.54666
8.62719
8.73209
8.86456
9.02848
9.22862
9.47081
9.7622
10.1117
10.5306
11.0332
11.6385
12.3714
13.2659
14.3692
15.7492
17.5073
19.7998
22.8849
27.0837
32.5555
39.268
47.4216
57.3158
69.2816
83.7225
101.046
121.712
146.12
174.641
207.454
244.568
285.619
329.948
376.418
423.654
469.936
513.693
553.312
587.939
616.629
639.998
657.035
671.38
678.481
8.23301
8.23647
8.25786
8.29814
8.35649
8.43544
8.53829
8.66821
8.82896
9.02525
9.2628
9.54861
9.89146
10.3024
10.7956
11.3896
12.109
12.987
14.0703
15.4258
17.1532
19.4067
22.4411
26.5774
31.9799
38.6216
46.7049
56.5319
68.4424
82.848
100.172
120.892
145.435
174.206
207.432
245.175
287.147
332.757
380.953
430.407
479.445
526.448
569.771
608.359
641.226
668.636
689.869
707.515
718.004
8.00143
8.00497
8.0259
8.06521
8.12221
8.19928
8.29967
8.42651
8.58347
8.77513
9.00709
9.28621
9.62108
10.0225
10.5044
11.0848
11.7878
12.6462
13.7057
15.0318
16.7226
18.9297
21.9038
25.9661
31.2863
37.8439
45.8446
55.5925
67.4352
81.7927
99.1037
119.861
144.52
173.511
207.108
245.421
288.23
335.007
384.784
436.284
487.884
537.934
584.758
627.146
664.028
695.405
720.571
741.718
755.645
7.71877
7.72298
7.74289
7.78078
7.83606
7.91079
8.00811
8.13113
8.2834
8.46937
8.69448
8.96542
9.29053
9.68033
10.1484
10.7123
11.3956
12.2303
13.261
14.5517
16.1984
18.3497
21.2515
25.2248
30.4469
36.9045
44.8055
54.4572
66.2174
80.5155
97.8074
118.603
143.385
172.616
206.614
245.536
289.231
337.232
388.648
442.247
496.452
549.588
599.943
646.175
687.112
722.541
751.709
776.503
793.868
7.38925
7.39283
7.41164
7.44807
7.50141
7.57345
7.66726
7.7859
7.93279
8.1122
8.32942
8.59091
8.90476
9.28117
9.73326
10.2782
10.9387
11.7459
12.7432
13.9931
15.5889
17.6757
20.494
24.3637
29.4709
35.8105
43.5945
53.1326
64.7922
79.0125
96.2665
117.08
141.965
171.409
205.775
245.263
289.784
338.931
391.884
447.464
504.139
560.224
613.977
663.947
708.862
748.318
781.485
809.996
830.896
7.02798
7.03139
7.04943
7.08439
7.1356
7.20476
7.29481
7.40872
7.54978
7.72212
7.9308
8.18208
8.48374
8.84563
9.28042
9.80468
10.4405
11.2179
12.179
13.3843
14.9247
16.9413
19.6683
23.4242
28.404
34.6116
42.2609
51.6641
63.1991
77.3145
94.499
115.295
140.239
169.848
204.523
244.509
289.774
339.973
394.357
451.802
510.822
569.74
626.787
680.422
729.276
772.769
809.993
842.347
867.04
6.66465
6.66783
6.68492
6.71825
6.76723
6.83342
6.91962
7.0287
7.16383
7.32894
7.52893
7.76979
8.05903
8.40613
8.82332
9.32655
9.93715
10.6842
11.6083
12.7682
14.252
16.1968
18.8303
22.4684
27.3142
33.38
40.8828
50.1372
61.5279
75.5119
92.5917
113.324
138.267
167.962
202.845
243.202
289.055
340.118
395.71
454.771
515.873
577.358
637.455
694.557
747.209
794.674
835.953
872.188