/*--------------------------------*- C++ -*----------------------------------*\
| =========                 |                                                 |
| \\      /  F ield         | OpenFOAM: The Open Source CFD Toolbox           |
|  \\    /   O peration     | Version:  2.3.0                                 |
|   \\  /    A nd           | Web:      www.OpenFOAM.org                      |
|    \\/     M anipulation  |                                                 |
\*---------------------------------------------------------------------------*/
FoamFile
{
    version     2.0;
    format      ascii;
    class       volVectorField;
    location    "200";
    object      U;
}
// * * * * * * * * * * * * * * * * * * * * * * * * * * * * * * * * * * * * * //

dimensions      [0 1 -1 0 0 0 0];

internalField   nonuniform List<vector> 
28552
(
(93.3078 6.84216e-19 0.588548)
(93.0998 -1.00608e-18 0.251391)
(92.874 -3.57641e-19 -0.0922423)
(92.6409 1.19032e-18 -0.442498)
(92.3914 -2.05553e-18 -0.828047)
(92.1265 -4.69661e-20 -1.255)
(91.8489 1.3903e-18 -1.72523)
(91.5586 -1.39859e-18 -2.2455)
(91.2562 1.00695e-18 -2.82439)
(90.9437 1.35316e-20 -3.47107)
(90.6241 1.0839e-18 -4.19603)
(90.3022 -5.61298e-19 -5.01239)
(89.9863 5.8694e-19 -5.93424)
(89.6857 -3.19574e-19 -6.98565)
(89.4269 -3.25699e-19 -8.13167)
(89.2367 3.95845e-19 -9.30686)
(89.1223 -8.72014e-19 -10.4964)
(89.0862 4.80046e-19 -11.6874)
(89.128 1.05739e-18 -12.8642)
(89.2443 -5.63235e-19 -14.0186)
(89.4304 0 -15.1236)
(89.6753 -3.04331e-19 -16.2055)
(89.9767 3.67124e-19 -17.1643)
(90.3084 3.15607e-19 -18.2077)
(90.6955 -1.73874e-19 -18.8718)
(91.0374 3.59317e-19 -20.0464)
(91.5294 2.29005e-20 -20.1778)
(91.7633 1.93074e-19 -21.7961)
(92.5036 -1.37617e-20 -20.8994)
(92.1603 0 -23.7604)
(93.7339 0 -20.5369)
(91.8686 0 -26.7634)
(96.8228 -2.70135e-19 -18.8904)
(79.4884 2.6878e-19 -27.3606)
(93.7514 -9.81727e-19 0.262653)
(93.5545 1.68177e-18 -0.0936867)
(93.3462 -6.93328e-19 -0.444073)
(93.1387 3.72903e-19 -0.795674)
(92.9175 3.73417e-19 -1.18675)
(92.6846 0 -1.61919)
(92.443 4.56624e-19 -2.09313)
(92.1925 -4.17522e-19 -2.61555)
(91.9338 -4.88092e-19 -3.19423)
(91.6689 4.98868e-19 -3.83727)
(91.4011 -1.56661e-18 -4.55402)
(91.135 1.63681e-18 -5.35622)
(90.8777 -1.13988e-18 -6.25583)
(90.6387 -5.47238e-19 -7.27491)
(90.4408 6.75582e-19 -8.37833)
(90.3053 3.36865e-19 -9.50207)
(90.2368 0 -10.6323)
(90.2369 4.19696e-19 -11.7581)
(90.3047 -4.62793e-19 -12.8651)
(90.4367 -2.29836e-19 -13.9487)
(90.6283 -2.4306e-19 -14.9801)
(90.869 0 -15.9977)
(91.158 0 -16.8824)
(91.4687 0 -17.8826)
(91.8299 0 -18.4811)
(92.1451 -4.5959e-19 -19.6262)
(92.5905 3.24522e-19 -19.7178)
(92.7943 1.50438e-19 -21.3288)
(93.5054 -2.53749e-19 -20.4215)
(93.1086 0 -23.355)
(94.703 0 -20.1118)
(92.7611 0 -26.4349)
(97.8227 1.597e-19 -19.1196)
(81.1259 -4.10045e-19 -26.774)
(94.2068 6.03333e-19 -0.0346121)
(94.0311 -2.49045e-20 -0.409498)
(93.8464 3.46274e-19 -0.762624)
(93.6645 1.40073e-18 -1.11281)
(93.4709 -1.09503e-18 -1.50639)
(93.2677 -4.07618e-19 -1.94008)
(93.0584 1.19735e-18 -2.41309)
(92.843 4.20641e-19 -2.93278)
(92.6223 -4.27535e-19 -3.50618)
(92.3985 0 -4.14051)
(92.1751 -4.47406e-19 -4.84418)
(91.9566 -4.93508e-19 -5.62775)
(91.7512 5.01671e-19 -6.50203)
(91.5676 5.45552e-19 -7.48666)
(91.4249 0 -8.5465)
(91.3396 -3.35619e-19 -9.61943)
(91.3146 -3.42127e-19 -10.6924)
(91.3499 8.62187e-21 -11.7562)
(91.4439 5.94078e-19 -12.7969)
(91.5923 4.27679e-19 -13.8143)
(91.7921 6.69945e-19 -14.7755)
(92.0312 -2.41031e-19 -15.7335)
(92.3159 0 -16.5465)
(92.6107 0 -17.5036)
(92.9633 2.43721e-19 -18.0377)
(93.2565 -3.26107e-19 -19.1553)
(93.6907 0 -19.1923)
(93.8711 -1.87188e-19 -20.809)
(94.5973 1.50636e-19 -19.8427)
(94.1984 -1.10928e-20 -22.8311)
(95.8758 2.18207e-20 -19.5525)
(93.9703 1.16811e-19 -25.7505)
(99.2057 9.71721e-21 -18.8957)
(83.0469 -6.64567e-20 -25.9973)
(94.6857 1.35351e-19 -0.284669)
(94.5357 -1.68911e-19 -0.683759)
(94.3788 0 -1.03862)
(94.2237 4.71043e-19 -1.38798)
(94.0585 -6.64433e-19 -1.78328)
(93.8861 1.54483e-19 -2.21637)
(93.7096 -3.60552e-19 -2.68653)
(93.5296 5.65248e-19 -3.20159)
(93.3471 -2.03222e-19 -3.76764)
(93.1646 0 -4.39105)
(92.9854 6.50396e-19 -5.0794)
(92.8138 6.50386e-19 -5.84214)
(92.6567 -9.07056e-21 -6.68837)
(92.5229 -2.28695e-19 -7.63579)
(92.4278 2.37894e-19 -8.64966)
(92.3845 0 -9.67043)
(92.3949 2.81646e-19 -10.686)
(92.4589 0 -11.689)
(92.5744 -5.27049e-19 -12.6656)
(92.7374 1.75653e-19 -13.6198)
(92.9448 -2.0914e-19 -14.5136)
(93.1851 -1.92288e-19 -15.4148)
(93.4658 3.05146e-19 -16.1585)
(93.7528 -1.98999e-19 -17.069)
(94.0935 4.65382e-19 -17.5368)
(94.3853 -1.60687e-19 -18.6141)
(94.8055 0 -18.5757)
(94.998 -5.63683e-20 -20.1704)
(95.7389 -1.69318e-19 -19.0655)
(95.345 2.12099e-19 -22.0908)
(97.1196 4.75932e-20 -18.591)
(95.206 -6.70519e-20 -24.5785)
(100.341 -9.71577e-21 -17.8131)
(84.1243 9.85075e-21 -24.7962)
(95.1774 -2.58343e-19 -0.481556)
(95.0493 -1.36128e-20 -0.90092)
(94.9193 -1.33912e-19 -1.25369)
(94.7872 -2.92612e-19 -1.60041)
(94.6467 -1.43879e-19 -1.99481)
(94.5026 -3.15679e-19 -2.4247)
(94.3566 -1.54685e-19 -2.88964)
(94.2088 -1.93913e-20 -3.39763)
(94.0609 1.69078e-19 -3.95385)
(93.9153 -5.31391e-19 -4.56396)
(93.7754 -1.99525e-19 -5.23483)
(93.6455 -2.05624e-19 -5.97486)
(93.5325 -3.95643e-19 -6.79208)
(93.4449 1.85661e-19 -7.70226)
(93.3952 -6.5575e-19 -8.67102)
(93.3927 1.14569e-19 -9.64122)
(93.4385 2.34133e-19 -10.6015)
(93.5313 -1.00209e-20 -11.5463)
(93.6688 -1.34359e-20 -12.4613)
(93.8464 -3.11562e-19 -13.3552)
(94.0629 7.13689e-20 -14.1838)
(94.3049 0 -15.0305)
(94.5863 -9.18823e-20 -15.7055)
(94.864 -1.5543e-19 -16.5707)
(95.2013 -2.74322e-20 -16.9661)
(95.4719 1.67507e-19 -18.0131)
(95.8885 1.38633e-19 -17.8854)
(96.0281 -1.52687e-19 -19.4899)
(96.7759 1.1353e-19 -18.2566)
(96.2903 -1.2552e-19 -21.3411)
(98.0202 1.70163e-20 -17.7906)
(96.0168 -5.16352e-21 -23.6872)
(100.975 0 -17.0804)
(84.8477 7.9075e-22 -23.7196)
(95.6715 1.80227e-19 -0.625915)
(95.5619 -7.23462e-20 -1.06754)
(95.4622 1.96215e-19 -1.415)
(95.357 -1.27845e-19 -1.7592)
(95.2429 7.5875e-19 -2.15157)
(95.1275 2.23418e-19 -2.57661)
(95.012 -1.34383e-19 -3.03475)
(94.8967 -4.66911e-19 -3.53397)
(94.7835 6.24187e-19 -4.07852)
(94.6749 -3.9542e-19 -4.6735)
(94.574 3.2739e-19 -5.32501)
(94.4851 0 -6.04048)
(94.4144 1.84482e-19 -6.82682)
(94.37 -1.85227e-19 -7.69822)
(94.3615 2.8855e-19 -8.62082)
(94.3946 -3.08338e-19 -9.54021)
(94.4699 7.77767e-21 -10.4458)
(94.5862 4.54683e-19 -11.3337)
(94.7412 -2.98522e-19 -12.1889)
(94.9302 -5.51866e-20 -13.0253)
(95.1522 -7.11176e-20 -13.7914)
(95.3937 9.32667e-20 -14.5864)
(95.6683 -2.53078e-19 -15.1987)
(95.9363 1.58094e-19 -16.0218)
(96.2503 -1.10415e-19 -16.3588)
(96.5101 2.13529e-19 -17.3755)
(96.8806 -1.13663e-19 -17.1886)
(97.0068 0 -18.7883)
(97.7154 0 -17.4721)
(97.2075 4.58258e-20 -20.568)
(98.9018 -6.96681e-20 -16.9651)
(96.887 2.32307e-20 -22.7423)
(101.768 0 -16.2634)
(85.6867 3.49069e-21 -22.6878)
(96.1688 -5.60298e-20 -0.723253)
(96.0795 3.62484e-19 -1.18588)
(96.0035 -5.12553e-19 -1.52338)
(95.9207 -2.74455e-20 -1.86304)
(95.8304 -3.64684e-20 -2.25112)
(95.7409 -9.58716e-20 -2.66918)
(95.6533 -2.9857e-20 -3.11872)
(95.5675 0 -3.60738)
(95.4856 -3.13427e-20 -4.13858)
(95.4101 -1.06755e-19 -4.71693)
(95.3441 -3.25253e-20 -5.34788)
(95.2917 -2.86388e-19 -6.03795)
(95.2589 4.00388e-19 -6.79312)
(95.2537 -2.33551e-21 -7.62603)
(95.2829 -3.93864e-19 -8.50345)
(95.3494 2.92451e-19 -9.37361)
(95.4532 -3.28714e-19 -10.2264)
(95.592 1.87265e-19 -11.06)
(95.7636 3.26358e-20 -11.8581)
(95.9628 -1.27464e-19 -12.6401)
(96.1907 2.00718e-19 -13.3465)
(96.4313 -1.38746e-19 -14.0932)
(96.7043 2.03572e-19 -14.6432)
(96.9624 -2.19326e-20 -15.4287)
(97.2735 6.9055e-20 -15.6972)
(97.5116 -6.49151e-20 -16.6996)
(97.8903 2.21415e-21 -16.4171)
(97.9597 -3.02671e-20 -18.0547)
(98.7063 3.32979e-20 -16.6058)
(98.1145 0 -19.7664)
(99.8289 -1.07526e-21 -16.0927)
(97.7645 -6.68166e-20 -21.7998)
(102.527 6.92107e-20 -15.4681)
(86.5197 -3.47084e-21 -21.6922)
(96.6526 -5.64363e-19 -0.78372)
(96.5857 2.05206e-20 -1.25194)
(96.5389 1.98563e-19 -1.58125)
(96.4823 3.05945e-20 -1.91503)
(96.4171 -2.84131e-20 -2.29731)
(96.3542 2.91905e-20 -2.70676)
(96.2947 3.31257e-20 -3.14603)
(96.2388 -2.27098e-19 -3.62228)
(96.1885 2.63095e-20 -4.13818)
(96.1463 3.44047e-20 -4.6979)
(96.1152 3.27224e-20 -5.30626)
(96.099 2.42175e-19 -5.96891)
(96.1031 -8.48292e-20 -6.691)
(96.1351 1.17854e-19 -7.4838)
(96.199 3.44434e-21 -8.31494)
(96.2952 4.05644e-20 -9.13557)
(96.4231 -1.56969e-20 -9.93608)
(96.5808 -1.34536e-19 -10.7163)
(96.7663 1.66621e-19 -11.4584)
(96.9743 1.7831e-21 -12.1874)
(97.2065 1.21238e-19 -12.8359)
(97.447 -1.44385e-19 -13.5352)
(97.7142 -9.26954e-21 -14.0273)
(97.967 -4.16629e-21 -14.7748)
(98.2583 0 -14.9897)
(98.4945 0 -15.967)
(98.8317 -2.49404e-21 -15.6379)
(98.9067 6.11345e-22 -17.2627)
(99.6142 -5.23164e-23 -15.7904)
(99.0396 0 -18.9151)
(100.686 0 -15.3222)
(98.6723 1.2978e-19 -20.8918)
(103.351 -2.91398e-19 -14.8459)
(87.5933 2.03516e-19 -20.7548)
(97.1379 -1.66895e-19 -0.792051)
(97.0811 -4.5364e-21 -1.26882)
(97.057 1.71434e-19 -1.59042)
(97.025 -2.99046e-21 -1.918)
(96.983 1.80643e-19 -2.29364)
(96.9441 -2.03048e-19 -2.69339)
(96.9099 -3.19229e-21 -3.12134)
(96.8807 0 -3.58412)
(96.8585 2.4833e-20 -4.08378)
(96.8458 -3.33998e-21 -4.62415)
(96.8455 1.91682e-19 -5.20945)
(96.8612 -1.75531e-19 -5.84459)
(96.8983 0 -6.5339)
(96.9639 0 -7.28739)
(97.0601 -3.43453e-21 -8.0735)
(97.1844 -9.74478e-20 -8.8462)
(97.3359 9.97356e-20 -9.59616)
(97.5119 1.85814e-21 -10.3254)
(97.7107 -8.71959e-20 -11.0139)
(97.926 8.60825e-20 -11.6931)
(98.1621 1.675e-21 -12.2858)
(98.4009 -7.51263e-22 -12.9405)
(98.6655 -3.61839e-20 -13.373)
(98.9107 5.36461e-20 -14.0851)
(99.2006 -4.28146e-22 -14.2292)
(99.4226 3.06266e-20 -15.1918)
(99.7739 -4.83835e-20 -14.7589)
(99.805 -2.73756e-22 -16.4125)
(100.566 -3.11366e-21 -14.7998)
(99.9369 -1.24565e-19 -17.9609)
(101.649 1.40406e-19 -14.2563)
(99.6235 0 -19.701)
(104.25 0 -13.8105)
(88.5618 -5.48606e-22 -19.6296)
(97.6014 3.08036e-19 -0.759363)
(97.5656 -1.06954e-19 -1.24438)
(97.5653 3.25866e-20 -1.55119)
(97.5567 0 -1.87276)
(97.5385 1.81736e-19 -2.23992)
(97.5239 -9.52902e-20 -2.62809)
(97.5153 3.36719e-20 -3.04302)
(97.5132 -1.17905e-19 -3.49049)
(97.5197 1.64913e-19 -3.97198)
(97.5369 3.31431e-20 -4.49104)
(97.5676 3.24745e-20 -5.05131)
(97.6153 1.02882e-20 -5.65701)
(97.6847 0 -6.31186)
(97.7824 0 -7.02478)
(97.9081 0 -7.76534)
(98.0571 0 -8.4906)
(98.2284 -5.8436e-20 -9.19131)
(98.4197 6.43726e-20 -9.87143)
(98.629 -4.39172e-20 -10.5085)
(98.8506 6.13062e-20 -11.1403)
(99.0887 0 -11.6797)
(99.3259 0 -12.2919)
(99.5829 0 -12.6696)
(99.8208 -5.04969e-20 -13.3462)
(100.09 1.4503e-19 -13.4337)
(100.303 -8.2948e-20 -14.3688)
(100.617 -3.20888e-21 -13.8802)
(100.651 0 -15.4952)
(101.351 2.75664e-19 -13.8605)
(100.762 -3.03573e-19 -16.904)
(102.341 -5.08253e-21 -13.3368)
(100.433 0 -18.4365)
(104.836 -8.92669e-21 -12.7906)
(89.0971 -7.90175e-19 -18.481)
(98.051 8.5276e-20 -0.689641)
(98.0312 -3.2718e-20 -1.19022)
(98.0522 8.48791e-20 -1.47534)
(98.0638 -2.37174e-19 -1.79132)
(98.067 8.5598e-20 -2.14862)
(98.0745 8.47785e-20 -2.5239)
(98.0886 -1.0207e-19 -2.92507)
(98.1107 -3.39618e-20 -3.35649)
(98.1426 -1.48204e-19 -3.81922)
(98.1862 8.19297e-20 -4.31659)
(98.2444 7.40301e-20 -4.85162)
(98.3205 -1.3895e-19 -5.42797)
(98.419 0 -6.04858)
(98.5463 0 -6.72141)
(98.7002 6.60924e-20 -7.41698)
(98.8739 -2.93239e-20 -8.09548)
(99.0658 0 -8.74778)
(99.2728 0 -9.3806)
(99.4933 3.11388e-21 -9.96858)
(99.7204 -8.21111e-21 -10.5574)
(99.9596 -3.12988e-20 -11.0482)
(100.192 3.44885e-20 -11.6256)
(100.441 0 -11.9536)
(100.665 1.11489e-19 -12.6076)
(100.922 1.89136e-20 -12.6345)
(101.109 -1.72038e-19 -13.5698)
(101.416 0 -12.9876)
(101.384 0 -14.654)
(102.102 2.25137e-20 -12.871)
(101.403 -4.13593e-19 -15.9962)
(103.008 9.2792e-19 -12.259)
(100.979 -5.42706e-19 -17.5062)
(105.208 6.59278e-19 -11.4165)
(89.2776 -8.37026e-19 -17.4888)
(98.4802 -8.87864e-20 -0.586086)
(98.4789 -4.07766e-20 -1.09458)
(98.5192 9.09842e-20 -1.35842)
(98.5523 3.82346e-20 -1.66698)
(98.578 -5.03167e-20 -2.01189)
(98.6079 2.11042e-19 -2.37232)
(98.6451 -1.37518e-19 -2.75757)
(98.6916 3.35709e-20 -3.17054)
(98.7491 0 -3.61208)
(98.8194 2.89541e-20 -4.08521)
(98.905 0 -4.59247)
(99.0092 0 -5.13691)
(99.1356 0 -5.72108)
(99.2906 1.75301e-20 -6.35198)
(99.4696 -4.76896e-20 -7.00158)
(99.6642 -1.14044e-20 -7.6334)
(99.8729 0 -8.23813)
(100.093 -1.94328e-20 -8.82484)
(100.324 4.39303e-20 -9.36537)
(100.558 -3.76987e-20 -9.91264)
(100.801 5.936e-20 -10.3579)
(101.035 0 -10.9039)
(101.281 0 -11.1916)
(101.501 0 -11.833)
(101.741 2.04704e-19 -11.8315)
(101.916 -2.25475e-19 -12.7798)
(102.2 0 -12.1985)
(102.157 -3.71576e-19 -13.8798)
(102.836 7.613e-19 -12.1914)
(102.156 -4.16155e-19 -15.2768)
(103.662 0 -11.8045)
(101.697 0 -16.9323)
(105.859 -6.7779e-19 -11.4593)
(90.3158 -1.55067e-20 -16.7258)
(98.8847 6.97602e-20 -0.453618)
(98.8991 3.99926e-20 -0.969126)
(98.9573 0 -1.21035)
(99.0101 -6.41732e-20 -1.51119)
(99.0567 -3.78436e-20 -1.84258)
(99.1071 -3.67791e-20 -2.18742)
(99.1651 5.32212e-20 -2.55612)
(99.2334 -8.72929e-20 -2.95003)
(99.3137 0 -3.3699)
(99.4076 -2.90955e-20 -3.81849)
(99.5177 0 -4.29772)
(99.6469 0 -4.81018)
(99.7989 0 -5.35763)
(99.9797 0 -5.94627)
(100.183 3.00012e-20 -6.54904)
(100.4 -3.57989e-20 -7.13288)
(100.627 2.49879e-20 -7.68828)
(100.862 2.19744e-20 -8.2276)
(101.105 -8.01121e-20 -8.71917)
(101.347 3.58055e-20 -9.22458)
(101.596 -1.2105e-19 -9.62354)
(101.835 9.21613e-20 -10.1367)
(102.082 -5.02068e-20 -10.3814)
(102.311 6.12398e-20 -10.9982)
(102.554 0 -10.952)
(102.749 0 -11.8782)
(103.046 -3.91207e-19 -11.249)
(103.03 -3.63517e-21 -12.8932)
(103.735 1.01087e-18 -11.1746)
(103.134 -6.37471e-19 -14.1366)
(104.638 0 -10.6835)
(102.843 8.48365e-19 -15.4768)
(107.082 -1.91449e-18 -10.3738)
(91.3497 2.5433e-18 -15.4047)
(99.2656 -4.84746e-20 -0.296081)
(99.2983 -3.42553e-20 -0.816082)
(99.373 3.02015e-20 -1.03284)
(99.445 2.57561e-20 -1.32532)
(99.5127 0 -1.64127)
(99.5836 -1.81457e-20 -1.96897)
(99.6624 0 -2.31944)
(99.7526 6.71154e-21 -2.69244)
(99.8555 -3.47483e-22 -3.08883)
(99.9729 -1.30958e-21 -3.51101)
(100.107 1.31638e-21 -3.96052)
(100.26 0 -4.43941)
(100.436 0 -4.94924)
(100.64 0 -5.49531)
(100.864 -1.81195e-20 -6.05218)
(101.097 0 -6.58992)
(101.338 0 -7.09799)
(101.583 3.02809e-20 -7.59077)
(101.834 0 -8.03182)
(102.084 -5.23667e-20 -8.48924)
(102.339 0 -8.82967)
(102.586 -1.57346e-19 -9.29144)
(102.841 2.69307e-19 -9.46271)
(103.078 -6.15678e-20 -10.0289)
(103.331 0 -9.88766)
(103.524 0 -10.7713)
(103.83 5.85217e-20 -10.0236)
(103.798 0 -11.6367)
(104.509 -5.89528e-19 -9.77365)
(103.869 6.51797e-19 -12.7291)
(105.375 7.68374e-19 -9.15156)
(103.514 -9.55678e-19 -13.8409)
(107.319 -1.0098e-18 -8.54372)
(91.0574 -3.35627e-20 -14.0748)
(99.6217 0 -0.117418)
(99.669 4.74746e-20 -0.637574)
(99.7592 -3.01875e-20 -0.830006)
(99.8492 -1.24117e-20 -1.11331)
(99.9363 1.10192e-20 -1.41264)
(100.026 1.80857e-20 -1.72247)
(100.123 -1.37538e-20 -2.05388)
(100.233 -2.77501e-20 -2.40515)
(100.356 3.45355e-22 -2.77733)
(100.495 -6.80791e-20 -3.17246)
(100.65 2.94811e-20 -3.59148)
(100.825 0 -4.03616)
(101.023 3.33791e-20 -4.50715)
(101.248 1.58016e-20 -5.00922)
(101.493 4.53507e-20 -5.51776)
(101.744 7.50345e-20 -6.00665)
(101.999 8.87041e-20 -6.46483)
(102.256 -2.07607e-19 -6.9107)
(102.514 1.2103e-19 -7.30385)
(102.765 -7.76277e-20 -7.72306)
(103.017 1.79234e-19 -8.02275)
(103.252 1.70882e-19 -8.46363)
(103.487 -3.25183e-19 -8.60638)
(103.702 -3.17684e-19 -9.17116)
(103.92 4.45125e-19 -9.01861)
(104.084 0 -9.91627)
(104.356 4.30391e-19 -9.18218)
(104.29 -6.13032e-19 -10.8124)
(104.946 0 -9.02585)
(104.297 9.21843e-20 -11.9472)
(105.705 4.86584e-20 -8.59273)
(103.939 5.77603e-20 -13.1812)
(107.58 9.88475e-19 -8.1531)
(90.7642 -1.30179e-18 -13.0954)
(99.9514 0 0.0781365)
(100.018 -1.32432e-20 -0.432367)
(100.12 0 -0.602555)
(100.228 -1.04071e-20 -0.874364)
(100.335 1.18777e-20 -1.15495)
(100.443 0 -1.44508)
(100.559 1.37633e-20 -1.75511)
(100.688 1.55247e-21 -2.08225)
(100.831 1.95957e-20 -2.42774)
(100.99 1.35057e-19 -2.79315)
(101.166 -1.08253e-19 -3.17922)
(101.361 0 -3.5872)
(101.579 -5.6754e-20 -4.01784)
(101.824 -1.39756e-19 -4.47521)
(102.085 0 -4.93706)
(102.348 1.64616e-20 -5.38119)
(102.612 -2.12433e-19 -5.79587)
(102.874 -1.27867e-20 -6.20258)
(103.135 1.49518e-19 -6.55695)
(103.388 1.55067e-20 -6.94416)
(103.64 -1.18937e-19 -7.20789)
(103.882 6.04512e-20 -7.62212)
(104.12 -2.44851e-19 -7.72979)
(104.345 3.47882e-19 -8.27582)
(104.566 -9.6044e-20 -8.09057)
(104.738 -4.87405e-19 -8.97344)
(105.02 1.09446e-18 -8.21889)
(104.968 -5.45246e-19 -9.81725)
(105.629 0 -8.03215)
(105.023 6.2632e-21 -10.8622)
(106.419 -9.36843e-19 -7.55106)
(104.699 1.05984e-18 -11.9655)
(108.278 -7.52786e-20 -7.19042)
(90.6891 0 -11.7775)
(100.255 -1.20723e-20 0.289159)
(100.336 7.68458e-21 -0.214921)
(100.451 1.28166e-20 -0.359466)
(100.575 -5.10163e-20 -0.620595)
(100.699 0 -0.881577)
(100.823 0 -1.15188)
(100.956 -6.19006e-20 -1.44052)
(101.102 -3.24407e-20 -1.74361)
(101.262 3.25417e-20 -2.06271)
(101.438 -6.72611e-20 -2.39899)
(101.631 1.29244e-19 -2.75259)
(101.844 -1.71093e-19 -3.12464)
(102.079 1.07253e-19 -3.51472)
(102.34 1.53003e-19 -3.9265)
(102.617 9.16251e-20 -4.33782)
(102.894 1.38431e-20 -4.73)
(103.171 1.35053e-19 -5.08954)
(103.446 -1.48556e-19 -5.44122)
(103.718 -9.4377e-20 -5.73443)
(103.982 1.09959e-19 -6.06567)
(104.244 -1.50587e-20 -6.26296)
(104.494 0 -6.62388)
(104.74 -3.61082e-19 -6.65839)
(104.972 3.98033e-19 -7.15618)
(105.202 0 -6.88227)
(105.377 6.22669e-19 -7.72723)
(105.675 -6.07804e-19 -6.86465)
(105.62 -7.23948e-19 -8.4347)
(106.29 7.91436e-19 -6.54385)
(105.688 9.41927e-19 -9.3232)
(107.063 2.63383e-20 -5.99711)
(105.394 -1.15979e-18 -10.1803)
(108.317 -1.27125e-18 -5.48976)
(89.7546 1.73327e-18 -10.2826)
(100.535 0 0.512588)
(100.633 0 0.023072)
(100.757 2.22664e-20 -0.0974501)
(100.896 -6.66499e-20 -0.345149)
(101.037 -8.99282e-21 -0.584065)
(101.179 -2.98636e-20 -0.8324)
(101.327 -2.12556e-20 -1.09681)
(101.49 -9.32884e-20 -1.37297)
(101.667 -4.98714e-20 -1.66261)
(101.86 -1.23272e-19 -1.96636)
(102.07 1.19476e-19 -2.28431)
(102.299 -1.83504e-20 -2.61697)
(102.549 8.29097e-21 -2.9642)
(102.824 -2.30452e-19 -3.32877)
(103.112 0 -3.69123)
(103.396 1.67276e-20 -4.03692)
(103.676 0 -4.35139)
(103.948 0 -4.66394)
(104.215 -9.64946e-20 -4.91906)
(104.472 -1.25432e-19 -5.22006)
(104.721 2.78262e-19 -5.38601)
(104.958 -3.31792e-19 -5.7294)
(105.188 3.64872e-19 -5.73897)
(105.409 4.37456e-19 -6.22646)
(105.62 -4.81144e-19 -5.94397)
(105.78 -6.82281e-20 -6.7884)
(106.058 -6.44011e-19 -5.93982)
(105.989 -1.82481e-20 -7.51103)
(106.628 8.01203e-19 -5.66935)
(106.026 -5.75755e-20 -8.42889)
(107.367 -2.07189e-18 -5.2174)
(105.718 4.70361e-18 -9.30371)
(108.138 -4.91846e-18 -4.88836)
(88.4579 6.67532e-18 -9.02664)
(100.79 -2.4146e-20 0.743698)
(100.902 8.15302e-20 0.27348)
(101.034 3.51011e-20 0.176058)
(101.187 1.61902e-19 -0.0575153)
(101.343 -1.77125e-20 -0.273988)
(101.498 4.42649e-20 -0.500576)
(101.661 1.41761e-19 -0.74108)
(101.837 1.49061e-19 -0.990921)
(102.027 -5.53235e-20 -1.25211)
(102.234 2.57438e-19 -1.52492)
(102.457 -2.29663e-19 -1.80903)
(102.698 2.22483e-19 -2.10518)
(102.959 1.87132e-19 -2.41213)
(103.245 0 -2.73317)
(103.54 1.21816e-19 -3.04875)
(103.83 -4.11362e-19 -3.34841)
(104.113 0 -3.61521)
(104.387 0 -3.88136)
(104.654 -2.35567e-19 -4.08536)
(104.909 3.86846e-19 -4.3415)
(105.155 -1.48002e-19 -4.45061)
(105.389 0 -4.74827)
(105.61 -1.04862e-19 -4.69407)
(105.819 -3.58424e-19 -5.14793)
(106.022 -1.83786e-20 -4.77598)
(106.166 1.30057e-18 -5.59925)
(106.438 -1.4647e-18 -4.63287)
(106.355 7.68522e-19 -6.16858)
(106.978 -1.08088e-19 -4.23451)
(106.384 0 -6.85572)
(107.639 1.08821e-18 -3.68875)
(106.077 -1.2118e-18 -7.44683)
(107.603 0 -3.11491)
(86.6799 0 -7.53553)
(101.021 3.14255e-20 0.983013)
(101.144 -8.91016e-20 0.532049)
(101.283 -1.4745e-19 0.45868)
(101.448 -3.07566e-20 0.239314)
(101.617 -1.10488e-20 0.0465291)
(101.784 -1.56982e-19 -0.157889)
(101.959 -2.22442e-19 -0.373501)
(102.146 0 -0.596279)
(102.348 7.11819e-20 -0.828231)
(102.565 -1.32181e-19 -1.06915)
(102.799 7.50451e-20 -1.31881)
(103.051 9.39767e-20 -1.57737)
(103.321 -2.79807e-19 -1.84407)
(103.614 0 -2.12121)
(103.915 0 -2.39218)
(104.207 -1.21694e-20 -2.6501)
(104.489 -1.8331e-19 -2.87703)
(104.761 0 -3.1111)
(105.022 0 -3.28375)
(105.269 1.42841e-19 -3.52007)
(105.503 -3.25891e-19 -3.60991)
(105.726 3.58032e-19 -3.90666)
(105.934 -4.28181e-19 -3.84391)
(106.135 8.28491e-19 -4.3084)
(106.324 -5.26322e-19 -3.95391)
(106.458 -7.44973e-20 -4.80427)
(106.715 7.6731e-19 -3.89378)
(106.626 -8.56401e-19 -5.46104)
(107.203 -6.40136e-19 -3.64799)
(106.643 9.56274e-19 -6.27084)
(107.856 0 -3.36196)
(106.344 1.12641e-18 -6.98624)
(107.338 -1.28149e-18 -3.12837)
(85.3398 0 -6.53774)
(101.228 -7.91303e-20 1.22671)
(101.361 0 0.79806)
(101.504 -1.30378e-20 0.746227)
(101.679 0 0.541099)
(101.858 9.94019e-20 0.370844)
(102.035 1.09658e-19 0.187348)
(102.218 1.2069e-19 -0.00505009)
(102.413 -7.36359e-20 -0.202786)
(102.623 7.3771e-20 -0.408056)
(102.848 0 -0.620374)
(103.089 0 -0.839303)
(103.346 0 -1.06547)
(103.621 0 -1.29718)
(103.917 0 -1.53816)
(104.219 -7.22643e-20 -1.77122)
(104.512 1.53169e-19 -1.99451)
(104.794 2.79949e-19 -2.18672)
(105.064 1.15491e-19 -2.38875)
(105.324 -2.60335e-19 -2.52732)
(105.571 -1.46466e-19 -2.73417)
(105.805 0 -2.78435)
(106.03 -3.03375e-19 -3.04902)
(106.238 4.49094e-19 -2.93913)
(106.442 8.20905e-21 -3.37318)
(106.635 -2.86915e-19 -2.9523)
(106.779 0 -3.74932)
(107.042 0 -2.77736)
(106.981 2.04573e-19 -4.21208)
(107.639 -1.10692e-19 -2.41373)
(107.049 0 -4.74177)
(108.264 0 -1.94621)
(106.781 7.73575e-20 -5.14704)
(106.756 0 -1.59036)
(83.807 -9.47461e-19 -5.13579)
(101.412 1.69722e-19 1.47487)
(101.553 -9.61342e-20 1.0669)
(101.699 1.21351e-19 1.03688)
(101.881 -2.64155e-20 0.844234)
(102.068 0 0.696693)
(102.252 3.42721e-20 0.53267)
(102.442 2.97957e-21 0.362841)
(102.643 -2.39539e-19 0.188997)
(102.859 -1.34585e-19 0.00925642)
(103.089 -1.89556e-19 -0.175523)
(103.334 0 -0.365061)
(103.595 -2.21368e-19 -0.559346)
(103.873 0 -0.757066)
(104.171 -2.55342e-19 -0.960523)
(104.474 0 -1.15467)
(104.765 0 -1.33962)
(105.045 1.03809e-19 -1.4922)
(105.312 -2.34175e-19 -1.65957)
(105.567 2.64077e-19 -1.75738)
(105.808 1.58564e-19 -1.93501)
(106.034 -5.34904e-19 -1.94721)
(106.249 4.01204e-19 -2.19367)
(106.443 4.62828e-19 -2.04485)
(106.631 -2.57327e-19 -2.47576)
(106.805 2.98112e-19 -2.02141)
(106.924 9.07205e-20 -2.83272)
(107.16 -4.61979e-19 -1.84588)
(107.08 -1.05099e-19 -3.30677)
(107.624 0 -1.5215)
(107.101 5.29084e-19 -3.84334)
(108.167 -5.70244e-19 -1.20629)
(106.7 -5.63089e-19 -4.24958)
(105.815 6.89466e-19 -0.94752)
(81.7371 8.53941e-19 -4.12308)
(101.574 -6.59094e-20 1.72529)
(101.722 7.18586e-20 1.33986)
(101.869 5.85429e-20 1.32957)
(102.057 -6.32236e-20 1.15047)
(102.25 0 1.02441)
(102.44 -7.42449e-20 0.879484)
(102.634 -4.04203e-20 0.731219)
(102.84 1.58657e-19 0.58012)
(103.059 1.71846e-19 0.424447)
(103.292 1.36207e-19 0.265232)
(103.539 0 0.102909)
(103.8 1.04765e-19 -0.0630369)
(104.078 0 -0.230295)
(104.374 -1.12026e-20 -0.40312)
(104.673 0 -0.565401)
(104.959 0 -0.723572)
(105.231 1.06938e-19 -0.850342)
(105.491 4.4249e-21 -0.997823)
(105.736 0 -1.07808)
(105.97 0 -1.2456)
(106.188 3.61793e-19 -1.24367)
(106.397 -1.99637e-19 -1.49161)
(106.585 -1.14935e-19 -1.33533)
(106.771 0 -1.78162)
(106.943 0 -1.3241)
(107.062 1.59709e-21 -2.16502)
(107.299 9.24344e-20 -1.17555)
(107.22 -4.21756e-19 -2.67514)
(107.769 4.61693e-19 -0.896003)
(107.256 6.72648e-20 -3.23686)
(108.395 0 -0.64892)
(106.892 -7.98563e-20 -3.6274)
(105.267 0 -0.555921)
(80.3192 6.19761e-20 -3.32619)
(101.715 0 1.97607)
(101.867 -1.45247e-20 1.61262)
(102.015 -9.101e-20 1.62148)
(102.206 4.74132e-20 1.45366)
(102.404 0 1.34913)
(102.597 7.43589e-20 1.22128)
(102.795 0 1.0936)
(103.002 2.3213e-20 0.963593)
(103.223 -1.21751e-19 0.830312)
(103.457 1.01027e-19 0.694871)
(103.704 -1.13549e-19 0.557439)
(103.965 1.17027e-19 0.417907)
(104.241 -1.30435e-19 0.277959)
(104.534 2.67729e-19 0.13434)
(104.828 -1.62148e-19 0.00105115)
(105.11 0 -0.129414)
(105.377 2.779e-20 -0.227925)
(105.632 -1.86127e-19 -0.350945)
(105.872 -7.29777e-20 -0.398086)
(106.1 -4.04433e-20 -0.542928)
(106.312 0 -0.500966)
(106.518 -1.59166e-19 -0.725687)
(106.702 -6.08176e-20 -0.51349)
(106.884 0 -0.92793)
(107.054 1.37988e-21 -0.403297)
(107.172 -1.68192e-19 -1.18444)
(107.413 4.80815e-20 -0.143993)
(107.329 -5.28918e-20 -1.51628)
(107.843 -5.98584e-20 0.243306)
(107.36 8.10279e-22 -1.84763)
(108.369 7.14141e-20 0.590543)
(106.84 -7.99008e-20 -1.9367)
(104.243 0 0.742044)
(78.4376 1.34226e-19 -2.19413)
(101.835 -1.4365e-20 2.22379)
(101.992 1.4383e-20 1.89025)
(102.137 7.95328e-20 1.91128)
(102.332 1.28463e-21 1.75813)
(102.532 5.87169e-20 1.67237)
(102.728 0 1.56125)
(102.927 8.86183e-20 1.45277)
(103.135 0 1.34243)
(103.356 9.79914e-20 1.22992)
(103.59 8.12193e-20 1.11629)
(103.836 2.86856e-19 1.00193)
(104.094 -2.97382e-20 0.886229)
(104.367 2.79301e-19 0.772186)
(104.656 -3.4804e-20 0.654603)
(104.945 1.8024e-19 0.549927)
(105.221 1.90301e-19 0.444055)
(105.481 0 0.37231)
(105.728 0 0.269771)
(105.959 1.42448e-19 0.245205)
(106.178 -4.16491e-20 0.114641)
(106.378 4.5754e-20 0.172188)
(106.57 0 -0.0496782)
(106.739 5.8366e-20 0.166147)
(106.903 9.99563e-20 -0.257541)
(107.053 3.80548e-20 0.250973)
(107.151 -8.44987e-20 -0.553072)
(107.357 0 0.449329)
(107.27 -1.0584e-19 -0.953005)
(107.747 -5.8614e-20 0.7259)
(107.258 1.30944e-19 -1.3728)
(108.235 -2.1624e-19 0.893683)
(106.648 8.12703e-20 -1.59849)
(103.229 -4.47246e-20 0.915934)
(76.5679 -3.08732e-22 -1.62473)
(101.935 -6.77132e-20 2.47263)
(102.095 -4.11561e-21 2.16224)
(102.238 -6.58773e-20 2.19869)
(102.434 4.76811e-21 2.05747)
(102.635 -1.6263e-19 1.991)
(102.833 -2.74581e-21 1.89541)
(103.032 -8.35146e-20 1.80573)
(103.24 -1.01633e-19 1.71419)
(103.46 0 1.62171)
(103.692 -2.22054e-19 1.52914)
(103.935 -1.17097e-19 1.43677)
(104.19 -1.27748e-19 1.34429)
(104.458 -2.69387e-19 1.25404)
(104.741 1.43248e-19 1.16151)
(105.024 1.61456e-19 1.08059)
(105.293 -1.85051e-19 0.995854)
(105.546 1.41771e-20 0.943176)
(105.786 -3.17995e-20 0.85361)
(106.011 1.63511e-19 0.843993)
(106.225 0 0.715866)
(106.421 -2.38177e-20 0.788639)
(106.613 5.30886e-20 0.560036)
(106.781 7.39056e-22 0.792657)
(106.948 -3.33558e-20 0.348984)
(107.103 7.64559e-20 0.882017)
(107.208 -1.70923e-19 0.0497363)
(107.444 9.42215e-20 1.0795)
(107.351 2.13595e-19 -0.338371)
(107.866 -1.76151e-19 1.3402)
(107.377 -6.67051e-20 -0.69757)
(108.374 7.27114e-20 1.48988)
(106.725 -1.60644e-19 -0.860426)
(102.521 2.22527e-19 1.39206)
(75.3454 0 -0.965013)
(102.017 -2.36813e-21 2.71915)
(102.179 0 2.43307)
(102.32 7.24137e-20 2.48258)
(102.516 -2.31137e-21 2.35281)
(102.718 7.5349e-20 2.30437)
(102.915 -3.67757e-22 2.22291)
(103.113 1.00621e-19 2.1506)
(103.32 1.1194e-19 2.07614)
(103.537 -1.29637e-20 2.00173)
(103.766 1.12882e-19 1.92788)
(104.005 0 1.85505)
(104.256 1.28257e-19 1.78231)
(104.519 1.36537e-19 1.71331)
(104.796 -1.8121e-19 1.64122)
(105.072 -2.52374e-19 1.58334)
(105.334 2.41607e-21 1.51733)
(105.581 2.52839e-21 1.48775)
(105.816 -1.92416e-19 1.41666)
(106.036 -1.47073e-19 1.43306)
(106.247 -8.54692e-20 1.32579)
(106.44 1.88625e-19 1.42799)
(106.629 -2.16196e-19 1.22439)
(106.797 1.19442e-19 1.49101)
(106.963 -2.38338e-21 1.08623)
(107.119 1.50831e-19 1.65114)
(107.224 1.69846e-19 0.877451)
(107.43 -9.85549e-20 1.92274)
(107.366 2.12113e-19 0.610372)
(107.843 1.16798e-19 2.24101)
(107.397 6.5737e-20 0.390829)
(108.301 -5.86793e-19 2.43703)
(106.513 6.44311e-19 0.421292)
(101.417 7.40701e-19 2.24102)
(73.8094 -1.1043e-18 -0.108903)
(102.082 7.16115e-20 2.96184)
(102.245 -8.64524e-20 2.7001)
(102.382 8.89561e-21 2.76139)
(102.578 0 2.64309)
(102.779 0 2.61187)
(102.975 -2.32681e-20 2.54368)
(103.172 -1.68589e-19 2.48817)
(103.376 -2.64243e-20 2.42977)
(103.59 2.64211e-20 2.3727)
(103.815 0 2.31685)
(104.05 0 2.26286)
(104.296 0 2.2101)
(104.552 0 2.16205)
(104.822 0 2.11277)
(105.089 1.68537e-19 2.07811)
(105.343 0 2.03482)
(105.581 1.1186e-19 2.02836)
(105.806 4.74536e-22 1.97549)
(106.015 0 2.01611)
(106.215 -3.49943e-21 1.9177)
(106.396 9.12827e-20 2.04661)
(106.576 1.0691e-19 1.83525)
(106.731 0 2.13514)
(106.889 -1.35879e-19 1.69424)
(107.032 7.4788e-20 2.29816)
(107.131 -1.58983e-21 1.4728)
(107.335 -1.88866e-19 2.53422)
(107.257 0 1.18478)
(107.73 -1.1686e-19 2.7843)
(107.284 -5.87851e-19 0.94858)
(108.145 4.91936e-19 2.85261)
(106.258 6.29208e-19 0.922912)
(100.327 -6.66211e-19 2.59137)
(72.3291 -6.73705e-20 0.419497)
(102.13 0 3.20183)
(102.294 6.94983e-20 2.96259)
(102.428 0 3.03546)
(102.622 0 2.92747)
(102.822 2.22768e-20 2.91276)
(103.016 1.44936e-21 2.85679)
(103.21 2.29648e-20 2.81695)
(103.411 5.05334e-20 2.77339)
(103.621 0 2.73224)
(103.841 0 2.69265)
(104.071 6.41874e-20 2.65562)
(104.31 -6.41755e-20 2.6198)
(104.559 -7.19475e-20 2.5899)
(104.82 7.1214e-20 2.55726)
(105.078 0 2.54119)
(105.321 1.95214e-19 2.5103)
(105.548 -7.81205e-22 2.51983)
(105.763 1.28276e-19 2.47512)
(105.962 0 2.52903)
(106.151 1.43335e-21 2.43693)
(106.322 -1.82319e-19 2.57965)
(106.491 0 2.37608)
(106.635 0 2.69023)
(106.78 0 2.27124)
(106.912 -7.34057e-20 2.88345)
(106.998 2.46288e-19 2.10573)
(107.187 -2.68184e-19 3.16033)
(107.102 4.97856e-20 1.91256)
(107.549 1.1116e-19 3.4463)
(107.123 6.30995e-20 1.81665)
(107.891 0 3.59522)
(105.795 0 1.90253)
(98.9589 -7.57182e-19 3.3006)
(70.6447 1.1558e-18 1.03714)
(102.162 1.12488e-21 3.43672)
(102.326 -8.9229e-20 3.22077)
(102.456 -3.96367e-20 3.3034)
(102.648 -4.23332e-20 3.20538)
(102.846 4.49777e-20 3.2066)
(103.038 -4.4978e-20 3.16151)
(103.229 -9.87174e-20 3.13683)
(103.425 0 3.10676)
(103.631 -5.38384e-20 3.08051)
(103.846 -2.35258e-19 3.0559)
(104.07 -3.54061e-21 3.03435)
(104.303 -3.6861e-21 3.01437)
(104.544 -7.10315e-20 3.00067)
(104.796 0 2.98471)
(105.044 0 2.98516)