/*--------------------------------*- C++ -*----------------------------------*\
| =========                 |                                                 |
| \\      /  F ield         | OpenFOAM: The Open Source CFD Toolbox           |
|  \\    /   O peration     | Version:  2.3.0                                 |
|   \\  /    A nd           | Web:      www.OpenFOAM.org                      |
|    \\/     M anipulation  |                                                 |
\*---------------------------------------------------------------------------*/
FoamFile
{
    version     2.0;
    format      ascii;
    class       volScalarField;
    location    "397";
    object      omega;
}
// * * * * * * * * * * * * * * * * * * * * * * * * * * * * * * * * * * * * * //

dimensions      [0 0 -1 0 0 0 0];

internalField   nonuniform List<scalar> 
28552
(
5.72747
6.46159
7.27273
8.21083
9.34161
10.7087
12.3712
14.4167
16.9641
20.1749
24.2771
29.5971
36.6223
46.1798
58.1677
73.1642
91.8393
115.02
143.751
179.244
223.297
277.382
345.916
427.742
540.312
664.265
863.948
1040.98
1412.03
1782.36
2597.6
3590.28
4707.02
3429.22
5.86979
6.6556
7.4816
8.43386
9.59178
10.99
12.6872
14.7736
17.3682
20.6326
24.7952
30.1816
37.2773
46.9059
58.9432
73.9553
92.5978
115.678
144.228
179.416
223.069
276.483
344.355
424.892
536.156
658.205
854.812
1030.42
1395.94
1759.66
2556.52
3549.78
4676.85
3455.2
6.01575
6.85937
7.70453
8.67468
9.86241
11.2935
13.026
15.1531
17.7943
21.111
25.332
30.7824
37.9463
47.6443
59.7324
74.7655
93.3892
116.395
144.806
179.745
223.09
275.938
343.314
422.765
533.062
653.422
847.987
1022.01
1384.85
1742.61
2543.01
3529.18
4631.03
3504.29
6.16283
7.06897
7.93106
8.92068
10.1385
11.602
13.3706
15.5391
18.2272
21.5969
25.8775
31.3933
38.6271
48.3983
60.5469
75.6178
94.2503
117.222
145.557
180.331
223.495
275.926
343.037
421.654
531.489
650.404
844.243
1016.49
1379.6
1733.21
2534.71
3522.4
4567.28
3568.32
6.297
7.26018
8.13509
9.14382
10.3882
11.8796
13.6798
15.8842
18.6122
22.026
26.3553
31.9236
39.2117
49.0367
61.2232
76.3066
94.9195
117.824
146.046
180.606
223.534
275.48
342.199
419.89
528.961
646.27
838.595
1009.06
1370.14
1719.25
2515.31
3497.76
4499.06
3647.82
6.42891
7.45374
8.33365
9.36176
10.6324
12.1505
13.9811
16.2204
18.9868
22.4433
26.8194
32.438
39.7784
49.6549
61.879
76.9771
95.5766
118.424
146.552
180.92
223.653
275.159
341.555
418.391
526.873
642.604
833.941
1002.5
1362.71
1707.83
2499.12
3478.89
4433.3
3750.71
6.53717
7.63772
8.5202
9.56717
10.8623
12.4045
14.263
16.534
19.335
22.8293
27.2464
32.9083
40.2923
50.2095
62.4591
77.5586
96.1311
118.906
146.924
181.082
223.598
274.645
340.676
416.634
524.449
638.568
828.678
995.493
1353.81
1695.16
2477.96
3451.62
4367.27
3889.6
6.6005
7.80025
8.69331
9.76007
11.0786
12.6431
14.5271
16.8267
19.6586
23.1862
27.6386
33.3368
40.7557
50.7027
62.9647
78.0505
96.5791
119.26
147.145
181.062
223.321
273.863
339.445
414.464
521.434
633.866
822.285
987.491
1342.51
1680.02
2451.38
3416.89
4300.67
4080.65
6.64376
7.94878
8.85664
9.94258
11.2831
12.8683
14.776
17.1021
19.9627
23.521
28.0059
33.7374
41.1884
51.1623
63.4359
78.5097
97.0004
119.597
147.368
181.07
223.115
273.207
338.434
412.607
518.971
629.861
817.137
981.057
1333.68
1668.96
2427.7
3389.78
4218.57
4356.94
6.70342
8.08099
9.0042
10.1092
11.4679
13.071
14.9994
17.3482
20.2329
23.8169
28.3281
34.0855
41.56
51.5506
63.8246
78.8747
97.3161
119.817
147.462
180.936
222.751
272.383
337.226
410.541
516.247
625.614
811.583
974.297
1323.79
1656.6
2400.56
3358.79
4126.91
4802.99
6.78473
8.22383
9.15079
10.2777
11.6538
13.2745
15.2238
17.5951
20.504
24.1138
28.6517
34.4357
41.9349
51.9444
64.2231
79.2563
97.6593
120.078
147.618
180.888
222.509
271.712
336.238
408.719
513.913
621.736
806.779
968.117
1315.27
1645.27
2375.36
3321.57
4056.05
5642.57
6.85516
8.33674
9.27108
10.4182
11.8059
13.4391
15.403
17.7889
20.7122
24.3355
28.8843
34.6746
42.1718
52.1642
64.3993
79.3541
97.64
119.876
147.18
180.084
221.27
269.795
333.517
404.823
508.421
614.385
795.965
955.847
1295.34
1619.76
2331.23
3253.37
4054.99
8251.1
6.92573
8.45028
9.38687
10.5552
11.9536
13.5991
15.5777
17.9786
20.9171
24.5552
29.1172
34.9174
42.4187
52.4034
64.6115
79.5125
97.7181
119.824
146.969
179.613
220.528
268.572
331.859
402.316
505.164
609.77
789.738
948.888
1284.2
1607.08
2301.31
3223.09
4107.72
12333.6
6.99544
8.5608
9.49744
10.6877
12.0953
13.7525
15.7457
18.1614
21.1153
24.7687
29.345
35.1572
42.6661
52.6494
64.8417
79.7055
97.8553
119.863
146.897
179.338
220.062
267.712
330.685
400.414
502.662
606.128
784.574
943.456
1274.35
1596.28
2270.79
3187.15
4517.91
17855
7.06052
8.65609
9.5956
10.806
12.2194
13.8849
15.8884
18.314
21.2772
24.9379
29.5182
35.3288
42.8272
52.7836
64.9246
79.7037
97.734
119.561
146.363
178.454
218.76
265.777
328.001
396.654
497.437
599.297
774.592
932.07
1256.05
1572.28
2226.75
3113.72
5494.27
24401.6
7.12241
8.73888
9.68499
10.9146
12.3322
14.0044
16.0164
18.4503
21.4209
25.0871
29.6691
35.4759
42.9614
52.8894
64.9803
79.6797
97.6018
119.268
145.875
177.67
217.646
264.143
325.796
393.564
493.249
593.848
766.749
923.517
1241.65
1555.2
2189.45
3091.29
7333.12
31258.1
7.18567
8.82432
9.77488
11.0253
12.4472
14.1265
16.1481
18.5921
21.5728
25.248
29.837
35.647
43.1301
53.0448
65.1085
79.7592
97.6154
119.175
145.658
177.246
217.007
263.118
324.388
391.48
490.355
590.068
760.906
917.602
1229.84
1542.01
2158
3166.97
9835.94
37536
7.24425
8.89309
9.85414
11.1237
12.5479
14.2317
16.2593
18.7095
21.6956
25.3738
29.9616
35.7642
43.2301
53.1107
65.1182
79.6819
97.421
118.81
145.081
176.357
215.747
261.319
321.918
388.117
485.628
584.11
751.998
907.737
1213.05
1520.45
2113.89
3274.17
12446.3
42779.4
7.30075
8.95471
9.92918
11.2186
12.6458
14.3344
16.3689
18.8272
21.8216
25.5069
30.1
35.9045
43.3675
53.2358
65.2206
79.7441
97.4316
118.736
144.915
176.029
215.263
260.534
320.871
386.542
483.499
581.472
748.276
905.179
1204.15
1513.28
2099.15
3721.62
14968.9
46299.1
7.35612
9.01097
9.99936
11.307
12.7353
14.4259
16.463
18.9247
21.9215
25.6061
30.1939
35.9858
43.4256
53.2525
65.1724
79.5984
97.1542
118.271
144.206
174.98
213.773
258.462
317.97
382.702
477.985
574.612
737.82
892.822
1183.8
1485
2052.11
3938.34
16551.2
48698.5
7.40977
9.06213
10.0667
11.3936
12.8242
14.518
16.5594
19.0275
22.0312
25.7217
30.3138
36.1073
43.5453
53.3632
65.2678
79.6664
97.1893
118.251
144.131
174.798
213.505
257.993
317.368
381.964
477.066
573.924
735.288
892.97
1176.78
1483.15
2088.37
4638.96
18044.1
49826
7.4628
9.1111
10.1321
11.4777
12.9102
14.6059
16.6502
19.1232
22.1318
25.8259
30.4193
36.2101
43.6404
53.4408
65.3169
79.669
97.1297
118.096
143.856
174.339
212.813
256.965
315.877
379.907
473.978
570.017
728.931
885.04
1162.4
1462.02
2082.45
5100.2
18793
50313.3
7.51473
9.15684
10.1947
11.5584
12.9925
14.6891
16.7347
19.2111
22.2229
25.9184
30.5101
36.2944
43.7117
53.4872
65.3241
79.6163
96.9963
117.846
143.455
173.726
211.921
255.697
314.083
377.496
470.49
565.607
722.115
876.77
1147.63
1441.79
2083.65
5546.74
19332.1
50378.4
7.56207
9.19081
10.2498
11.6314
13.0685
14.7665
16.8143
19.2957
22.3136
26.0147
30.6113
36.399
43.8183
53.5919
65.4253
79.7077
97.0777
117.904
143.495
173.717
211.975
255.76
314.052
377.581
469.991
565.93
719.95
877.011
1141.22
1443.42
2192.21
6251.81
20031.1
49948.5
7.60686
9.21643
10.298
11.6958
13.1357
14.8327
16.8797
19.3624
22.3819
26.0829
30.6766
36.4572
43.864
53.6147
65.4133
79.6432
96.9412
117.666
143.116
173.149
211.13
254.583
312.32
375.303
466.538
561.583
712.972
867.289
1125.7
1419.52
2208.39
6674.91
20421.4
49394.9
7.65345
9.2499
10.351
11.7658
13.2089
14.9056
16.9529
19.4383
22.4611
26.1641
30.7578
36.5348
43.9339
53.6683
65.441
79.6305
96.873
117.517
142.86
172.744
210.515
253.705
311.036
373.573
463.96
558.338
707.489
860.832
1114.02
1408.47
2289.66
7235.78
21006.3
48752.2
7.69786
9.27966
10.4012
11.8331
13.2806
14.9773
17.0258
19.5153
22.5435
26.2517
30.8498
36.63
44.0314
53.7646
65.5342
79.7152
96.9455
117.568
142.879
172.736
210.491
253.629
310.747
373.289
462.953
557.628
704.399
858.502
1105.72
1411.68
2449.8
7961.6
21821.6
47988.7
7.74185
9.31086
10.4517
11.9
13.3519
15.048
17.0973
19.5901
22.6226
26.3346
30.9351
36.7156
44.1151
53.8405
65.5961
79.7532
96.9467
117.515
142.742
172.491
210.059
252.995
309.708
371.899
460.638
554.68
699.361
852.264
1093.69
1403.13
2576.83
8578.87
22660.2
47265.1
7.78515
9.34387
10.5033
11.9685
13.4259
15.122
17.1738
19.672
22.7118
26.4313
31.0394
36.8274
44.2351
53.9674
65.7307
79.9067
97.1297
117.717
142.953
172.735
210.274
253.293
309.823
372.289
460.353
555.135
697.697
851.749
1089.47
1431.36
2874.39
9445.62
23945.6
46472.3
7.82617
9.37323
10.5511
12.032
13.4951
15.1903
17.2436
19.7454
22.7908
26.5154
31.1281
36.9196
44.3299
54.0612
65.8204
79.987
97.1917
117.752
142.967
172.707
210.122
253.059
309.255
371.613
458.806
553.412
693.733
846.896
1080.26
1440.88
3122.46
10283.5
25521.2
45654.6
7.8659
9.40199
10.5971
12.0925
13.561
15.2539
17.3075
19.811
22.8593
26.5857
31.1982
36.9868
44.3905
54.1078
65.843
79.9736
97.1218
117.609
142.703
172.301
209.463
252.143
307.828
369.724
455.847
549.523
687.42
837.837
1066.01
1429.89
3315.09
11074.9
27156
45044.9
7.906
9.43613
10.6469
12.1576
13.632
15.3235
17.3796
19.8871
22.9416
26.6737
31.2917
37.085
44.4927
54.2111
65.9443
80.0713
97.2205
117.696
142.753
172.325
209.383
252.021
307.431
369.298
454.682
548.33
684.18
834.223
1059.97
1467.91
3696.67
12147.7
29060.1
44567.5
7.94662
9.47606
10.7005
12.2266
13.707
15.3972
17.4569
19.9694
23.0313
26.7706
31.3959
37.1965
44.6166
54.3455
66.0858
80.2196
97.3664
117.844
142.87
172.436
209.382
252.003
307.095
368.946
453.487
547.043
680.725
830.161
1054.11
1513.74
4125.59
13263.2
30905.5
44187.7
7.98571
9.51569
10.7531
12.2947
13.7813
15.4702
17.5346
20.0525
23.1232
26.8738
31.512
37.3258
44.7619
54.5044
66.2614
80.4165
97.5758
118.08
143.095
172.698
209.557
252.237
307.036
369.007
452.743
546.405
678.05
827.222
1052.79
1594.85
4672.13
14437.6
31979
43834
8.02435
9.55773
10.8063
12.3626
13.8548
15.5416
17.6102
20.1323
23.2101
26.9668
31.6129
37.4344
44.8765
54.6213
66.3756
80.525
97.6604
118.14
143.082
172.626
209.301
251.854
306.238
367.944
450.747
543.759
673.264
820.736
1044.35
1646.83
5132.74
15320.7
32372.1
43672.4
8.06337
9.60538
10.8631
12.4358
13.9337
15.6192
17.6942
20.2226
23.3104
27.0766
31.7335
37.5671
45.0227
54.7754
66.5392
80.7008
97.8336
118.323
143.229
172.779
209.335
251.882
305.951
367.633
449.652
542.464
670.063
816.967
1045.15
1762.48
5719.4
16133.2
32322.1
43665.2
8.10513
9.65762
10.9239
12.5113
14.0149
15.6999
17.7823
20.3173
23.416
27.1925
31.8615
37.7088
45.1798
54.9414
66.7173
80.8954
98.0295
118.535
143.409
172.973
209.407
251.955
305.691
367.336
448.523
541.059
666.703
812.952
1047.55
1897.85
6300.33
16741.4
31961
43759.2
8.15047
9.71255
10.9872
12.5886
14.0978
15.7829
17.8734
20.4157
23.5259
27.3134
31.9956
37.858
45.346
55.1172
66.9069
81.1043
98.2402
118.764
143.603
173.182
209.485
252.028
305.42
367.005
447.366
539.562
663.337
809.042
1053.74
2064.39
6879.39
17187.3
31359.8
43916.5
8.19672
9.76817
11.0506
12.6655
14.1802
15.8658
17.9648
20.5144
23.6364
27.4351
32.1307
38.0088
45.5141
55.2949
67.0988
81.3163
98.4543
118.999
143.805
173.402
209.584
252.128
305.198
366.733
446.314
538.188
660.213
805.837
1066.78
2271.24
7449.84
17465.4
30591.3
44110.8
8.25134
9.8306
11.1214
12.7487
14.2689
15.957
18.0662
20.6249
23.7608
27.5732
32.2856
38.1837
45.7119
55.5062
67.3327
81.5821
98.7355
119.32
144.112
173.758
209.843
252.432
305.211
366.757
445.596
537.22
657.626
804.006
1091.16
2527.78
8016.11
17617.8
29708.9
44282.7
8.31219
9.89785
11.1969
12.8355
14.3606
16.052
18.1716
20.7394
23.889
27.7146
32.4429
38.3592
45.9072
55.7107
67.5528
81.8244
98.9783
119.582
144.332
173.986
209.929
252.481
304.904
366.3
444.325
535.417
654.128
800.662
1113.26
2782.75
8504.96
17572
28792.6
44492
8.37449
9.96672
11.2739
12.9237
14.4538
16.1503
18.2816
20.8605
24.026
27.8678
32.6164
38.5574
46.1335
55.955
67.8287
82.1446
99.3287
119.992
144.755
174.49
210.386
253.037
305.258
366.753
444.2
535.201
652.813
803.588
1174.97
3152.07
9044.25
17464.6
27929.5
44613.2
8.4446
10.0417
11.357
13.0165
14.551
16.2534
18.3965
20.9863
24.1671
28.024
32.791
38.7536
46.3528
56.1857
68.0801
82.4248
99.6166
120.308
145.039
174.793
210.56
253.181
305.065
366.4
443.065
533.49
649.642
802.377
1222.37
3471.37
9455.62
17194.7
27029.9
44722.2
8.52577
10.1257
11.4499
13.1176
14.6563
16.367
18.523
21.1253
24.3228
28.1966
32.9841
38.9706
46.5948
56.4395
68.3568
82.7323
99.9329
120.653
145.353
175.122
210.766
253.35
304.923
366.09
442.046
531.929
646.865
803.521
1290.68
3831.12
9847.53
16831.4
26183.2
44840.5
8.61286
10.2151
11.5489
13.2241
14.7676
16.4891
18.6599
21.2778
24.4951
28.3901
33.2038
39.222
46.8815
56.7485
68.7076
83.1388
100.382
121.173
145.902
175.759
211.377
254.05
305.455
366.67
442.114
531.829
646.415
814.633
1415.74
4286.8
10298.4
16549.2
25433.4
44889.8
8.70212
10.3064
11.6489
13.3309
14.8784
16.611
18.7959
21.4285
24.6641
28.5783
33.4155
39.4612
47.1494
57.032
69.0207
83.4911
100.753
121.583
146.293
176.176
211.684
254.323
305.418
366.446
441.166
530.293
644.012
820.483
1527.57
4690.78
10580.3
16212.2
24698
44909.4
8.80067
10.4058
11.758
13.4457
14.9979
16.7443
18.9453
21.5954
24.8522
28.7895
33.655
39.7348
47.4595
57.3651
69.3974
83.9242
101.227
122.124
146.854
176.806
212.267
254.948
305.842
366.819
441.005
529.856
643.904
839.341
1702.27
5147.5
10800.1
15905.4
24037.2
44901
8.89773
10.5048
11.8664
13.5601
15.1175
16.8794
19.0974
21.767
25.0471
29.0109
33.9091
40.0291
47.7985
57.7374
69.8304
84.436
101.812
122.815
147.624
177.714
213.228
256.066
306.914
368.033
441.915
530.956
647.784
880.582
1956.28
5648.22
10974.2
15651.3
23531.3
44789.6
8.99563
10.6047
11.9747
13.674
15.2363
17.0135
19.2479
21.9361
25.238
29.2263
34.1544
40.3105
48.118
58.084
70.2262
84.8948
102.323
123.401
148.249
178.421
213.915
256.803
307.484
368.542
441.946
530.85
650.231
920.028
2201.02
6074.85
11059.3
15363.1
22958.5
44586.1
9.11017
10.7184
12.0982
13.8008
15.3688
17.1642
19.4163
22.1252
25.4503
29.4648
34.4244
40.6175
48.4628
58.4535
70.6424
85.368
102.839
123.979
148.849
179.069
214.521
257.405
307.902
368.819
441.76
530.533
653.571
969.222
2464.89
6466.57
11062.8
15053.5
22443
44411.2
9.23807
10.8436
12.2338
13.938
15.5127
17.3285
19.5993
22.3306
25.6796
29.7215
34.7135
40.9439
48.8256
58.8384
71.0705
85.8467
103.353
124.538
149.415
179.657
215.042
257.872
308.146
368.836
441.252
529.798
656.871
1022.83
2725.67
6809.44
11004.1
14722.1
21876
44312.9
9.36686
10.9698
12.3697
14.0754
15.6569
17.4931
19.7821
22.5352
25.9072
29.9751
34.9971
41.2615
49.1745
59.2048
71.4709
86.2855
103.81
125.02
149.873
180.1
215.37
258.084
308.06
368.419
440.205
528.335
658.864
1075.89
2969.73
7060.17
10868.5
14363.5
21368.3
44299.7
9.50761
11.1077
12.5191
14.226
15.8177
17.6792
19.9912
22.7727
26.175
30.2796
35.3452
41.6615
49.6286
59.702
72.0471
86.9556
104.576
125.903
150.868
181.231
216.604
259.449
309.464
369.912
441.677
531.427
678.939
1208.31
3334.26
7342.15
10791.8
14130.2
21102
44214.5
9.6651
11.2604
12.6841
14.391
15.9949
17.8843
20.2213
23.0338
26.4686
30.6123
35.7241
42.0944
50.116
60.2324
72.656
87.6541
105.362
126.789
151.837
182.293
217.699
260.58
310.493
370.835
442.359
533.472
697.381
1333.26
3649.32
7542.18
10684.6
13855.9
20735.5
44019.3
9.82043
11.4144
12.8499
14.5576
16.1754
18.0938
20.4569
23.3018
26.7706
30.9559
36.1166
42.544
50.6236
60.7888
73.298
88.3937
106.2
127.738
152.886
183.45
218.918
261.862
311.735
372.041
443.584
537.459
727.036
1495.33
3977.01
7711.7
10581.2
13621.7
20452.4
43826.2
9.9771
11.5745
13.0224
14.7316
16.3658
18.3153
20.7066
23.5868
27.0926
31.3236
36.5379
43.0279
51.1716
61.3937
74.0004
89.2068
107.129
128.796
154.073
184.772
220.347
263.392
313.293
373.643
445.536
544.198
770.569
1690.07
4304.23
7850.36
10481.4
13412.9
20201.8
43591.6
10.1543
11.7533
13.2145
14.9248
16.5789
18.5627
20.9855
23.9044
27.4508
31.7317
37.0039
43.5604
51.7708
62.052
74.7595
90.0761
108.113
129.899
155.29
186.095
221.74
264.827
314.683
374.984
447.265
551.517
818.631
1885.74
4593.36
7942.39
10364.6
13184.2
19886.9
43348
10.3399
11.9395
13.4141
15.1267
16.8036
18.8234
21.28
24.2402
27.8303
32.165
37.4994
44.1269
52.4087
62.7561
75.5735
91.0095
109.172
131.089
156.61
187.535
223.273
266.421
316.281
376.62
449.787
562.629
883.798
2108.78
4878.56
8002.5
10241.1
12976.1
19634.9
43139.8
10.5331
12.1327
13.6209
15.3378
17.0408
19.0992
21.5926
24.5978
28.236
32.6302
38.0336
44.7402
53.1029
63.5296
76.4754
92.0516
110.368
132.445
158.116
189.228
225.127
268.401
318.367
378.949
453.979
580.702
974.613
2366.13
5167.2
8042.92
10127.5
12804.4
19444.9
42896.4
10.7479
12.3451
13.8482
15.5709
17.3047
19.4054
21.9401
24.9953
28.6873
33.1481
38.6283
45.422
53.8741
64.3906
77.4794
93.2095
111.696
133.943
159.803
191.059
227.058
270.527
320.617
381.545
459.314
604.374
1082.44
2631.62
5424.32
8054.62
10010.3
12630.5
19231.3
42613.9
10.9751
12.5691
14.0882
15.8197
17.5887
19.7351
22.3158
25.4262
29.1785
33.7141
39.281
46.1729
54.7279
65.3526
78.6099
94.5222
113.216
135.672
161.774
193.238
229.414
273.064
323.37
385.221
467.863
641.411
1226.14
2925.57
5659.31
8064.27
9912.11
12499.9
19085.8
42310.8
11.2137
12.8025
14.3387
16.0821
17.8901
20.0848
22.715
25.8847
29.7028
34.3194
39.98
46.9781
55.6453
66.3914
79.8335
95.9442
114.863
137.546
163.91
195.594
232.014
275.834
326.424
389.485
479.308
689.595
1390.4
3214.29
5856.8
8060.86
9809.94
12366.4
18913.6
41958
11.468
13.0529
14.6084
16.3677
18.2201
20.4677
23.1536
26.3898
30.2825
34.9912
40.7587
47.8781
56.6762
67.5692
81.2303
97.5781
116.771
139.73
166.421
198.391
235.17
279.288
330.451
395.772
497.565
759.708
1592.79
3515.27
6037.81
8060.85
9725.08
12269.4
18793.4
41565.1
11.7394
13.3223
14.8995
16.6793
18.5817
20.8869
23.6351
26.9453
30.9225
35.735
41.6232
48.8799
57.8292
68.8969
82.8142
99.4402
118.957
142.246
169.327
201.646
238.867
283.413
335.614
404.824
524.979
854.782
1826.88
3817.47
6198.44
8060.11
9649.45
12186.6
18677.8
41109.1
12.0201
13.6038
15.2053
17.011
18.9682
21.3355
24.1525
27.5445
31.6163
36.5453
42.5699
49.9834
59.1097
70.3886
84.6114
101.574
121.489
145.192
172.764
205.549
243.367
288.613
342.687
418.955
568.199
987.142
2103.13
4128.98
6352.1
8071.01
9599.96
12147
18615.1
40564.6
12.3163
13.904
15.5335
17.371
19.389
21.8242
24.7181
28.2018
32.3813
37.4427
43.6237
51.2188
60.5558
72.0941
86.6881
104.069
124.482
148.719
176.932
210.361
249.041
295.532
353.24
442.683
638.322
1172.54
2430.42
4450.76
6506.37
8099.82
9582.91
12154
18605.5
39885.8
12.6266
14.221
15.881
17.7548
19.8366
22.3426
25.3182
28.8989
33.1934
38.3962
44.7445
52.5358
62.1054
73.9377
88.9512
106.813
127.812
152.693
181.693
215.97
255.873
304.514
368.698
479.768
739.523
1402.19
2781.04
4766.44
6680.52
8176.54
9634.85
12250.1
18646.8
39062.1
12.8926
14.4954
16.1837
18.0919
20.2307
22.7997
25.8491
29.5177
33.9179
39.2504
45.7539
53.7295
63.5231
75.6454
91.0726
109.423
131.024
156.595
186.456
221.745
263.258
315.242
389.653
532.354
873.128
1670.52
3146.13
5078.14
6870.93
8292.91
9755.87
12434.3
18850.3
38225.6
13.1206
14.7329
16.4471
18.3873
20.5759
23.2006
26.316
30.0637
34.5593
40.0096
46.6548
54.8007
64.8055
77.2065
93.032
111.862
134.068
160.355
191.141
227.625
271.253
328.18
417.318
601.227
1033.03
1960.26
3521.96
5440.22
7160.65
8531.66
10081
12956.6
19393.3
36904.5
5.56156
6.24022
7.02873
7.9466
9.04709
10.3801
12.005
14.0075
16.5058
19.6615
23.7026
28.9569
35.9139
45.4039
57.3563
72.3543
91.0786
114.373
143.294
179.094
223.551
278.293
347.49
430.596
544.399
670.195
872.857
1051
1429.5
1803.6
2640.31
3632.98
4761.37
3289.68
5.73302
6.42791
7.22664
8.15626
9.27267
10.6246
12.271
14.2976
16.8221
20.0053
24.0743
29.355
36.3336
45.8329
57.7818
72.7534
91.4235
114.628
143.404
178.994
223.099
277.413
345.719
428.173
539.469
661.686
860.153
1028.17
1400.66
1747.59
2580.74
3550.01
4872.29
3022.69
5.91406
6.62286
7.43638
8.382
9.51558
10.8859
12.5517
14.598
17.1421
20.3434
24.4277
29.7181
36.6964
46.1748
58.0791
72.9856
91.5642
114.637
143.219
178.534
222.217
275.998
343.302
424.916
533.515
652.547
847.794
1002
1371.72
1678.8
2510.61
3420.45
5017.47
2766.28
6.07558
6.79884
7.62663
8.58643
9.73439
11.12
12.8019
14.8646
17.4245
20.6403
24.7363
30.0332
37.008
46.4627
58.3312
73.185
91.6835
114.644
143.072
178.187
221.575
275.002
341.618
422.729
529.311
649.561
841.724
987.431
1350.98
1638.66
2468.57
3319.44
5104.05
2568.96
6.25166
6.98191
7.81935
8.79146
9.95246
11.3512
13.046
15.1206
17.6901
20.9122
25.0087
30.297
37.2477
46.6499
58.4427
73.1914
91.557
114.355
142.58
177.438
220.479
273.487
339.377
419.902
524.506
644.801
831.473
973.369
1328.38
1595.01
2414.12
3197.16
5192.17
2373.74
6.40697
7.1433
7.98975
8.97282
10.1433
11.5499
13.2511
15.3298
17.9
21.1174
25.2011
30.4642
37.37
46.6921
58.3813
73.0053
91.2207
113.835
141.84
176.446
219.186
271.869
337.251
417.472
520.757
641.502
823.594
971.837
1322.1
1575.69
2389.65
3119.83
5172.87
2212.84
6.56573
7.30525
8.15696
9.14685
10.3231
11.734
13.4378
15.5159
18.0801
21.284
25.3433
30.5656
37.4044
46.6155
58.1612
72.6023
90.5935
112.948
140.664
174.953
217.335
269.64
334.519
414.442
516.617
637.959
816.449
972.995
1323.26
1573.02
2376.76
3083.21
5176.25
2090.72
6.69564
7.43358
8.28621
9.27906
10.4557
11.863
13.5584
15.6216
18.1623
21.3305
25.3367
30.4793
37.1984
46.2251
57.533
71.681
89.3218
111.258
138.474
172.179
213.882
265.431
329.402
408.52
509.06
630.468
803.796
971.867
1321.72
1555.12
2353.45
3002.95
5270.16
1986.64
6.80557
7.53918
8.38882
9.37874
10.5482
11.9426
13.6189
15.6549
18.1565
21.2689
25.1945
30.2208
36.7707
45.5446
56.5267
70.2624
87.386
108.689
135.158
168.003
208.715
259.14
321.784
399.521
497.896
618.45
785.294
964.808
1310.91
1520.4
2313.18
2854.72
5397.89
1841.52
6.89161
7.61796
8.45995
9.44152
10.5979
11.9729
13.6223
15.6209
18.0703
21.1092
24.9313
29.811
36.1517
44.618
55.2045
68.4446
84.965
105.552
131.182
163.046
202.621
251.763
312.964
389.228
485.641
605.191
767.386
950.931
1291
1511.86
2292.75
2767.13
5404.42
1728.18
6.9519
7.66704
8.49652
9.4644
10.602
11.95
13.5626
15.5115
17.8929
20.8385
24.5313
29.2309
35.3172
43.4137
53.5245
66.1646
81.9416
101.615
126.134
156.678
194.729
242.18
301.507
375.781
469.773
587.54
744.997
931.456
1250.17
1500.4
2280.77
2681.21
5448.89
1596.46
6.98437
7.68571
8.49845
9.44696
10.5587
11.872
13.4384
15.3257
17.6242
20.4571
23.9957
28.4821
34.27
41.9355
51.4905
63.4251
78.3227
96.9191
120.143
149.159
185.442
230.885
287.947
359.775
450.994
566.518
719.733
907.719
1210.55
1484.85
2300.41
2643.51
5460.89
1505.02
6.98173
7.66541
8.45659
9.37958
10.4586
11.7285
13.2376
15.0497
17.248
19.9465
23.3033
27.5405
32.9814
40.1493
49.0599
60.1712
74.032
91.3377
112.976
140.074
174.077
216.842
270.798
339.131
426.345
537.911
685.411
872.236
1159.48
1455.27
2274.07
2591.76
5514.94
1372.97
6.94104
7.60597
8.37262
9.26484
10.3043
11.5226
12.9645
14.6885
16.7715
19.317
22.4684
26.4263
31.4811
38.0992
46.2989
56.4984
69.2043
85.0628
104.907
129.81
161.159
200.764
251.022
315.137
397.6
504.376
646.202
830.836
1104.92
1417.94
2178.35
2560.45
5585.7
1263.06
6.8818
7.52384
8.26134
9.1174
10.1118
11.273
12.6419
14.2717
16.2318
18.6152
21.5499
25.2142
29.8649
35.9099
43.3682
52.6149
64.1082
78.4357
96.3614
118.881
147.297
183.341
229.347
288.495
365.255
465.831
600.128
778.814
1038.03
1362.77
2050.64
2530.87
5626.91
1157.92
6.77031
7.38817
8.09438
8.91083
9.85557
10.954
12.2427
13.7692
15.5953
17.8034
20.5051
23.8554
28.0759
33.5146
40.1898
48.4281
58.6319
71.32
87.1722
107.085
132.248
164.263
205.317
258.445
327.953
420.006
544.09
713.031
956.879
1285.41
1907.3
2490.17
5538.5
1020.85
6.65527
7.24614
7.91814
8.69139
9.58251
10.6141
11.8184
13.2373
14.925
16.9527
19.4171
22.4508
26.2416
31.0811
36.9873
44.2387
53.1815
64.2641
78.078
95.4111
117.325
145.269
181.26
228.149
290.053
373.038
486.361
643.934
871.436
1195.59
1764.1
2444.14
5249.35
893.443
6.49279
7.05777
7.69644
8.42766
9.26632
10.2324
11.3541
12.6679
14.2207
16.074
18.3101
21.0411
24.4241
28.6996
33.8868
40.2204
47.9949
57.5927
69.5211
84.4613
103.34
127.439
158.565
199.316
253.515
326.925
428.422
572.142
782.247
1095.72
1616.62
2379.4
4729.75
770.94
6.38967
6.92332
7.52401
8.20773
8.98857
9.88423
10.9191
12.1246
13.541
15.2206
17.2326
19.6702
22.6624
26.4035
30.9154
36.393
43.0823
51.3042
61.4856
74.2016
90.2374
110.692
137.135
171.867
218.33
281.812
370.085
496.694
684.97
977.924
1460.55
2283.03
4188.45
632.006
6.13206
6.63657
7.20245
7.84377
8.57321
9.40621
10.3635
11.4716
12.7644
14.2857
16.0925
18.2609
20.894
24.145
28.039
32.7359
38.4395
45.4169
54.0256
64.7366
78.1078
94.9959
116.626
144.794
182.218
233.174
305.111
410.024
568.883
821.19
1245.92
2031.42
3724.84
528.41
5.96885
6.44708
6.97897
7.57588
8.24935
9.01275
9.88301
10.8812
12.0349
13.3797
14.9611
16.838
19.0892
21.8298
25.0791
28.9551
33.6067
39.2267
46.0697
54.4929
65.0702
78.5366
95.9519
118.887
149.742
192.316
252.914
342.472
480.935
707.456
1104.32
1872.01
3498.82
446.429
6.03521
6.50533
7.02942
7.61776
8.2809
9.03245
9.8892
10.8707
11.9978
13.3044
14.8319
16.6332
18.7784
21.3656
24.4334
28.097
32.5045
37.8496
44.3891
52.472
62.5835
75.4039
91.9138
113.571
142.613
182.601
239.46
323.664
454.615
672.656
1062.56
1870.22
3604.86
353.819
5.54967
5.95727
6.40695
6.90743
7.46882
8.08649
8.76568
9.53469
10.4602
11.5298
12.7683
14.2121
15.9102
17.9297
20.3149
23.1547
26.5637
30.6933
35.7482
42.0069
49.8664
59.8907
72.9049
90.1535
113.573
146.289
193.586
264.906
378.275
571.411
930.268
1696.04
3518.03
310.652
5.63167
6.02694
6.445
6.89012
7.36853
7.88155
8.43199
9.03613
9.7308
10.5404
11.4928
12.6225
13.9734
15.607
17.587
20.0011
22.9689
26.6519
31.2691
37.1206
44.4699
53.7735
65.7574
81.5236
102.796
132.379
175.06
239.489
342.491
519.258
857.671
1576.3
3663.32
277.905
0.254686
0.254626
0.254566
0.254507
0.254448
0.254391
0.254334
0.254277
0.254222
0.254167
0.254113
0.25406
0.254008
0.253957
0.253907
0.253858
0.253811
0.253767
0.253726
0.25369
0.253662
0.253648
0.253661
0.253725
0.25387
0.254148
0.254661
0.255581
0.257151
0.259736
0.263963
0.270837
0.281952
0.299752
0.327892
0.371585
0.437946
0.536027
0.676525
0.870796
1.12949
1.46032
1.86556
2.336
2.84909
3.38977
3.9316
4.50652
5.03909
0.254687
0.254627
0.254568
0.254509
0.254451
0.254393
0.254336
0.25428
0.254225
0.25417
0.254116
0.254063
0.254011
0.25396
0.25391
0.253861
0.253815
0.25377
0.253729
0.253693
0.253665
0.25365
0.253663
0.253726
0.25387
0.254148
0.254661
0.255581
0.257153
0.259744
0.263983
0.270881
0.282037
0.299912
0.328185
0.37213
0.438961
0.537923
0.680098
0.877441
1.14139
1.48069
1.89838
2.38537
2.91842
3.48283
4.04809
4.64415
5.18897
0.254688
0.254628
0.254569
0.25451
0.254453
0.254396
0.254339
0.254283
0.254228
0.254173
0.25412
0.254067
0.254015
0.253964
0.253914
0.253865
0.253818
0.253773
0.253732
0.253696
0.253667
0.253653
0.253665
0.253727
0.253871
0.25415
0.254664
0.255589
0.25717
0.259783
0.264063
0.271042
0.282348
0.300494
0.329243
0.374004
0.442197
0.543372
0.688996
0.89151
1.16288
1.51235
1.9432
2.44565
2.99609
3.57954
4.16639
4.7833
5.35473
0.254688
0.254629
0.25457
0.254513
0.254455
0.254398
0.254342
0.254287
0.254232
0.254177
0.254124
0.254071
0.254019
0.253968
0.253918
0.253869
0.253822
0.253777
0.253736
0.253699
0.253671
0.253656
0.253667
0.253729
0.253872
0.254151
0.254666
0.255596
0.257187
0.259819
0.264136
0.271179
0.282595
0.300921
0.329959
0.375177
0.444087
0.546391
0.693793
0.899121
1.17485
1.53092
1.97121
2.48608
3.05209
3.65407
4.26217
4.90157
5.49877
0.254689
0.254631
0.254573
0.254515
0.254458
0.254402
0.254346
0.254291
0.254236
0.254182
0.254128
0.254076
0.254024
0.253973
0.253923
0.253874
0.253827
0.253782
0.25374
0.253703
0.253674
0.253659
0.253669
0.253731
0.253874
0.254152
0.25467
0.255605
0.257209
0.259867
0.264233
0.271367
0.282942
0.30154
0.331033
0.376993
0.447089
0.551259
0.701533
0.911178
1.1932
1.55818
2.01044
2.53999
3.1237
3.74549
4.37618
5.03877
5.66411
0.25469
0.254632
0.254574
0.254517
0.254461
0.254405
0.25435
0.254295
0.25424
0.254186
0.254133
0.25408
0.254029
0.253978
0.253928
0.253879
0.253832
0.253787
0.253745
0.253708
0.253678
0.253662
0.253672
0.253733
0.253876
0.254155
0.254676
0.255619
0.257239
0.25993
0.264357
0.271599
0.283358
0.302262
0.332243
0.378965
0.45022
0.556121
0.70893
0.922246
1.20949
1.58176
2.04388
2.58596
3.18471
3.82343
4.47491
5.1581
5.80882
0.25469
0.254633
0.254576
0.25452
0.254464
0.254409
0.254353
0.254299
0.254245
0.254191
0.254138
0.254085
0.254034
0.253983
0.253933
0.253884
0.253836
0.253791
0.253749
0.253712
0.253682
0.253666
0.253675
0.253735
0.253878
0.254158
0.254681
0.255631
0.257267
0.259989
0.264474
0.271819
0.283757
0.30296
0.333426
0.380913
0.453347
0.56103
0.716476
0.933626
1.22634
1.60621
2.07864
2.63394
3.24813
3.9052
4.57818
5.28181
5.95869
0.254691
0.254634
0.254578
0.254522
0.254466
0.254411
0.254356
0.254302
0.254248
0.254195
0.254142
0.25409
0.254038
0.253987
0.253937
0.253888
0.253841
0.253796
0.253753
0.253716
0.253686
0.253669
0.253678
0.253737
0.25388
0.254161
0.254687
0.255645
0.257298
0.260052
0.264597
0.272048
0.284166
0.303663
0.334595
0.382798
0.456302
0.565544
0.723219
0.943504
1.24057
1.6264
2.10684
2.67256
3.29959
3.97113
4.66202
5.38162
6.08214
0.254692
0.254636
0.25458
0.254524
0.254469
0.254414
0.25436
0.254306
0.254252
0.254199
0.254146
0.254094
0.254042
0.253991
0.253941
0.253892
0.253845
0.2538
0.253757
0.25372
0.253689
0.253672
0.253681
0.253739
0.253882
0.254163
0.254693
0.255658
0.257327
0.260111
0.264712
0.272263
0.284549
0.30432
0.335682
0.384538
0.459001
0.569616
0.72921
0.95214
1.25281
1.64354
2.13062
2.70476
3.34247
4.02629
4.73301
5.46648
6.18778
0.254692
0.254636
0.254581
0.254526
0.254471
0.254417
0.254362
0.254309
0.254255
0.254202
0.25415
0.254097
0.254046
0.253995
0.253945
0.253896
0.253849
0.253803
0.253761
0.253723
0.253693
0.253675
0.253683
0.253742
0.253884
0.254166
0.254699
0.255672
0.257358
0.260174
0.264834
0.272486
0.284942
0.304985
0.336767
0.386249
0.461607
0.57346
0.734721
0.959852
1.26341
1.6579
2.14996
2.73056
3.37671