/*--------------------------------*- C++ -*----------------------------------*\
| =========                 |                                                 |
| \\      /  F ield         | OpenFOAM: The Open Source CFD Toolbox           |
|  \\    /   O peration     | Version:  2.3.0                                 |
|   \\  /    A nd           | Web:      www.OpenFOAM.org                      |
|    \\/     M anipulation  |                                                 |
\*---------------------------------------------------------------------------*/
FoamFile
{
    version     2.0;
    format      ascii;
    class       volScalarField;
    location    "397";
    object      nut;
}
// * * * * * * * * * * * * * * * * * * * * * * * * * * * * * * * * * * * * * //

dimensions      [0 2 -1 0 0 0 0];

internalField   nonuniform List<scalar> 
28552
(
1.77843e-05
1.56989e-05
1.56606e-05
1.56657e-05
1.56751e-05
1.59731e-05
1.65712e-05
1.74617e-05
1.85246e-05
2.01126e-05
2.21528e-05
2.47392e-05
2.79908e-05
3.21639e-05
3.64777e-05
4.142e-05
4.72219e-05
3.84123e-05
3.13062e-05
2.56883e-05
2.12187e-05
1.77047e-05
1.48574e-05
1.27252e-05
1.0865e-05
9.61334e-06
8.23551e-06
7.21688e-06
6.2349e-06
5.69427e-06
5.5821e-06
6.98908e-06
8.28099e-06
5.42401e-07
1.92824e-05
1.65409e-05
1.69118e-05
1.7036e-05
1.70504e-05
1.74211e-05
1.81082e-05
1.90891e-05
2.04224e-05
2.21691e-05
2.43947e-05
2.71952e-05
3.06993e-05
3.51824e-05
3.97479e-05
4.49623e-05
4.71784e-05
3.83554e-05
3.13588e-05
2.58156e-05
2.13891e-05
1.79095e-05
1.50721e-05
1.29604e-05
1.11038e-05
9.80484e-06
8.41778e-06
7.32177e-06
6.35088e-06
5.74529e-06
5.63013e-06
7.0324e-06
8.39335e-06
6.3078e-07
2.02278e-05
1.68986e-05
1.75383e-05
1.77274e-05
1.77937e-05
1.82801e-05
1.90981e-05
2.02197e-05
2.17113e-05
2.36364e-05
2.60654e-05
2.91012e-05
3.28783e-05
3.76876e-05
4.25774e-05
4.8139e-05
4.69601e-05
3.82947e-05
3.1404e-05
2.59351e-05
2.15517e-05
1.81091e-05
1.52834e-05
1.31956e-05
1.13455e-05
9.98584e-06
8.59154e-06
7.42295e-06
6.46595e-06
5.8004e-06
5.73227e-06
7.11571e-06
8.46177e-06
7.42939e-07
2.13432e-05
1.74143e-05
1.84446e-05
1.87036e-05
1.88528e-05
1.94747e-05
2.04226e-05
2.1685e-05
2.33397e-05
2.54501e-05
2.80903e-05
3.13784e-05
3.54593e-05
4.06388e-05
4.58897e-05
5.18391e-05
4.6728e-05
3.82161e-05
3.14296e-05
2.60361e-05
2.16972e-05
1.82956e-05
1.54853e-05
1.34271e-05
1.15872e-05
1.01453e-05
8.7441e-06
7.50788e-06
6.56695e-06
5.85479e-06
5.81476e-06
7.2209e-06
8.48563e-06
8.592e-07
2.26644e-05
1.81084e-05
1.95934e-05
1.98887e-05
2.01218e-05
2.08865e-05
2.19692e-05
2.33804e-05
2.52107e-05
2.75232e-05
3.03989e-05
3.39574e-05
3.83549e-05
4.39202e-05
4.95418e-05
5.58927e-05
4.66024e-05
3.82199e-05
3.15202e-05
2.61904e-05
2.18872e-05
1.85212e-05
1.57236e-05
1.36925e-05
1.18418e-05
1.03059e-05
8.89645e-06
7.59783e-06
6.66896e-06
5.91249e-06
5.89219e-06
7.30487e-06
8.51513e-06
1.01184e-06
2.395e-05
1.88353e-05
2.08958e-05
2.12005e-05
2.15287e-05
2.24518e-05
2.36856e-05
2.52643e-05
2.72912e-05
2.98293e-05
3.29676e-05
3.68375e-05
4.16074e-05
4.76341e-05
5.37147e-05
5.68578e-05
4.65004e-05
3.82407e-05
3.16234e-05
2.63561e-05
2.20881e-05
1.8759e-05
1.59761e-05
1.39627e-05
1.20749e-05
1.04508e-05
9.03526e-06
7.67785e-06
6.76331e-06
5.96798e-06
5.96541e-06
7.4023e-06
8.55123e-06
1.22026e-06
2.53958e-05
1.95487e-05
2.21906e-05
2.24634e-05
2.28734e-05
2.39282e-05
2.52852e-05
2.70044e-05
2.91967e-05
3.19257e-05
3.54228e-05
3.95594e-05
4.46418e-05
5.10484e-05
5.74923e-05
5.6667e-05
4.64629e-05
3.83133e-05
3.17692e-05
2.65587e-05
2.23219e-05
1.90276e-05
1.62591e-05
1.42196e-05
1.23005e-05
1.05931e-05
9.17177e-06
7.76137e-06
6.85783e-06
6.02794e-06
6.03601e-06
7.49354e-06
8.60414e-06
1.51005e-06
2.88432e-05
2.05708e-05
2.37034e-05
2.40801e-05
2.45998e-05
2.58274e-05
2.73551e-05
2.92707e-05
3.16884e-05
3.46723e-05
3.83277e-05
4.28014e-05
4.8281e-05
5.51751e-05
6.20918e-05
5.65573e-05
4.64909e-05
3.84406e-05
3.19618e-05
2.6803e-05
2.25943e-05
1.93329e-05
1.65788e-05
1.44688e-05
1.25215e-05
1.07365e-05
9.30867e-06
7.85133e-06
6.95479e-06
6.09336e-06
6.1082e-06
7.5842e-06
8.67723e-06
1.94777e-06
3.18288e-05
2.16207e-05
2.53634e-05
2.55362e-05
2.61672e-05
2.75488e-05
2.92206e-05
3.13047e-05
3.39185e-05
3.71305e-05
4.10593e-05
4.58662e-05
5.2267e-05
5.97084e-05
6.7163e-05
5.649e-05
4.65498e-05
3.8592e-05
3.2174e-05
2.70655e-05
2.28845e-05
1.9658e-05
1.69117e-05
1.46938e-05
1.272e-05
1.08626e-05
9.43025e-06
7.93246e-06
7.04171e-06
6.15951e-06
6.17077e-06
7.6932e-06
8.71741e-06
2.62585e-06
3.06217e-05
2.24838e-05
2.67812e-05
2.7144e-05
2.79589e-05
2.95171e-05
3.13574e-05
3.3641e-05
3.64827e-05
3.99556e-05
4.41899e-05
4.93576e-05
5.56813e-05
6.36607e-05
6.8752e-05
5.65061e-05
4.66749e-05
3.87976e-05
3.24323e-05
2.73692e-05
2.32133e-05
2.0021e-05
1.72247e-05
1.49046e-05
1.29042e-05
1.09791e-05
9.54072e-06
8.00789e-06
7.11884e-06
6.22009e-06
6.22349e-06
7.80249e-06
8.75597e-06
3.78086e-06
2.992e-05
2.34418e-05
2.84455e-05
2.86757e-05
2.994e-05
3.16809e-05
3.36961e-05
3.62002e-05
3.92939e-05
4.30568e-05
4.7633e-05
5.32057e-05
6.00134e-05
6.85967e-05
6.86268e-05
5.65337e-05
4.68105e-05
3.90149e-05
3.27035e-05
2.76891e-05
2.35615e-05
2.03663e-05
1.75085e-05
1.50923e-05
1.30685e-05
1.10787e-05
9.63899e-06
8.07309e-06
7.19031e-06
6.27693e-06
6.27648e-06
7.8999e-06
8.89458e-06
6.19833e-06
3.14218e-05
2.45868e-05
3.02739e-05
3.03856e-05
3.16497e-05
3.3546e-05
3.57242e-05
3.87802e-05
4.21215e-05
4.61721e-05
5.10887e-05
5.70673e-05
6.43617e-05
7.35626e-05
6.8743e-05
5.67665e-05
4.71223e-05
3.93848e-05
3.31091e-05
2.81276e-05
2.40182e-05
2.07624e-05
1.78459e-05
1.53347e-05
1.32808e-05
1.12328e-05
9.7793e-06
8.18472e-06
7.29523e-06
6.35533e-06
6.35429e-06
7.96904e-06
9.42988e-06
1.65492e-05
3.29906e-05
2.58419e-05
3.21955e-05
3.22041e-05
3.37606e-05
3.58516e-05
3.82322e-05
4.12141e-05
4.52462e-05
4.96417e-05
5.49729e-05
6.14538e-05
6.93644e-05
7.93605e-05
6.88473e-05
5.69845e-05
4.74183e-05
3.97406e-05
3.35028e-05
2.85586e-05
2.44714e-05
2.11071e-05
1.81366e-05
1.55372e-05
1.34584e-05
1.13531e-05
9.88977e-06
8.26995e-06
7.37305e-06
6.42659e-06
6.40875e-06
8.12188e-06
1.28095e-05
4.02783e-05
3.46098e-05
2.72089e-05
3.42011e-05
3.40852e-05
3.59814e-05
3.82821e-05
4.08903e-05
4.45321e-05
4.84648e-05
5.32187e-05
5.89821e-05
6.5991e-05
7.45541e-05
8.35711e-05
6.89604e-05
5.72075e-05
4.77182e-05
4.0102e-05
3.39051e-05
2.90039e-05
2.48793e-05
2.14002e-05
1.83778e-05
1.56995e-05
1.35966e-05
1.14446e-05
9.97064e-06
8.34031e-06
7.43342e-06
6.49347e-06
6.4528e-06
8.33479e-06
2.29628e-05
8.51571e-05
3.62838e-05
2.86405e-05
3.62054e-05
3.59814e-05
3.8248e-05
4.0778e-05
4.4009e-05
4.75147e-05
5.17609e-05
5.6894e-05
6.31188e-05
7.06973e-05
7.99761e-05
8.37259e-05
6.9242e-05
5.75825e-05
4.81572e-05
4.05919e-05
3.44287e-05
2.95482e-05
2.5322e-05
2.17295e-05
1.86542e-05
1.58982e-05
1.37669e-05
1.15711e-05
1.0083e-05
8.43476e-06
7.52059e-06
6.56356e-06
6.51475e-06
8.44066e-06
2.98452e-05
0.000155373
3.79703e-05
3.027e-05
3.82529e-05
3.79957e-05
4.06686e-05
4.37938e-05
4.68931e-05
5.07156e-05
5.53352e-05
6.09272e-05
6.77186e-05
7.60082e-05
8.61866e-05
8.39495e-05
6.95789e-05
5.80029e-05
4.86345e-05
4.11158e-05
3.49839e-05
3.00599e-05
2.57422e-05
2.20428e-05
1.89164e-05
1.60857e-05
1.39261e-05
1.16875e-05
1.01836e-05
8.52177e-06
7.59403e-06
6.63603e-06
6.56759e-06
9.132e-06
5.93082e-05
0.000247078
3.96446e-05
3.20233e-05
4.04283e-05
4.04132e-05
4.35174e-05
4.65692e-05
4.99832e-05
5.41667e-05
5.92138e-05
6.53389e-05
7.2795e-05
8.19327e-05
9.32097e-05
8.41318e-05
6.98791e-05
5.83932e-05
4.90894e-05
4.16269e-05
3.55369e-05
3.04889e-05
2.60865e-05
2.2292e-05
1.9119e-05
1.62255e-05
1.40407e-05
1.17719e-05
1.02518e-05
8.59222e-06
7.64572e-06
6.70067e-06
6.66314e-06
1.34495e-05
0.00010572
0.000342601
4.16529e-05
3.40972e-05
4.28166e-05
4.24477e-05
4.59871e-05
4.93342e-05
5.30899e-05
5.76462e-05
6.31391e-05
6.98229e-05
7.79833e-05
8.80314e-05
0.000100821
8.44762e-05
7.03281e-05
5.89219e-05
4.96749e-05
4.22618e-05
3.61191e-05
3.09342e-05
2.64494e-05
2.25635e-05
1.93433e-05
1.63899e-05
1.41767e-05
1.18791e-05
1.03417e-05
8.67732e-06
7.71619e-06
6.76902e-06
6.72383e-06
1.74495e-05
0.000138633
0.000422251
4.34577e-05
3.61959e-05
4.5057e-05
4.47152e-05
4.87196e-05
5.24142e-05
5.65805e-05
6.15756e-05
6.75906e-05
7.49235e-05
8.38861e-05
9.53662e-05
0.000102181
8.47613e-05
7.07164e-05
5.93924e-05
5.02077e-05
4.28433e-05
3.65671e-05
3.12607e-05
2.67015e-05
2.27365e-05
1.94774e-05
1.64743e-05
1.42425e-05
1.19233e-05
1.03668e-05
8.71693e-06
7.73438e-06
6.84689e-06
7.77503e-06
3.70296e-05
0.000196625
0.000472458
4.52567e-05
3.84181e-05
4.73281e-05
4.7021e-05
5.14714e-05
5.55068e-05
6.00841e-05
6.54928e-05
7.19995e-05
8.06147e-05
9.00384e-05
0.000101493
0.000102507
8.5208e-05
7.12545e-05
6.00018e-05
5.08697e-05
4.34565e-05
3.70628e-05
3.16449e-05
2.70167e-05
2.29795e-05
1.96794e-05
1.66317e-05
1.43728e-05
1.20344e-05
1.04595e-05
8.80176e-06
7.80486e-06
6.90286e-06
7.90237e-06
3.97192e-05
0.000206306
0.000497982
4.70561e-05
4.08109e-05
4.96647e-05
4.94437e-05
5.43513e-05
5.87877e-05
6.38389e-05
6.97269e-05
7.74475e-05
8.58948e-05
9.60973e-05
0.000108505
0.00010271
8.553e-05
7.16659e-05
6.04863e-05
5.14116e-05
4.38904e-05
3.73943e-05
3.18813e-05
2.71951e-05
2.30967e-05
1.97676e-05
1.66756e-05
1.43961e-05
1.205e-05
1.04563e-05
8.8275e-06
7.80421e-06
7.12241e-06
1.1725e-05
6.85724e-05
0.00025986
0.000507115
4.89032e-05
4.33582e-05
5.20442e-05
5.19051e-05
5.72359e-05
6.2056e-05
6.81369e-05
7.43964e-05
8.18464e-05
9.08564e-05
0.000101743
0.000114992
0.000102973
8.59065e-05
7.21289e-05
6.10205e-05
5.19595e-05
4.43069e-05
3.77184e-05
3.21215e-05
2.73817e-05
2.32314e-05
1.98722e-05
1.67516e-05
1.44531e-05
1.2099e-05
1.04912e-05
8.86408e-06
7.82608e-06
7.16602e-06
1.32252e-05
8.05236e-05
0.000279588
0.00049563
5.07621e-05
4.60547e-05
5.45025e-05
5.49368e-05
6.06801e-05
6.59095e-05
7.18549e-05
7.85546e-05
8.6516e-05
9.61569e-05
0.000107822
0.000122058
0.000103294
8.63344e-05
7.2639e-05
6.15981e-05
5.24713e-05
4.4702e-05
3.80311e-05
3.23589e-05
2.75712e-05
2.33738e-05
1.99873e-05
1.68391e-05
1.45231e-05
1.21582e-05
1.05376e-05
8.91046e-06
7.85413e-06
7.21404e-06
1.49464e-05
9.22146e-05
0.000298689
0.00048192
5.31232e-05
4.91663e-05
5.74176e-05
5.74606e-05
6.35921e-05
6.92615e-05
7.57046e-05
8.28835e-05
9.13988e-05
0.000101709
0.000114189
0.000122453
0.000103548
8.66879e-05
7.30692e-05
6.20944e-05
5.28451e-05
4.497e-05
3.82242e-05
3.24871e-05
2.76466e-05
2.34086e-05
1.99988e-05
1.68391e-05
1.45031e-05
1.21516e-05
1.0505e-05
8.91205e-06
7.86328e-06
7.96819e-06
2.41348e-05
0.00012032
0.000345506
0.000463723
5.50359e-05
5.21198e-05
5.99052e-05
6.0006e-05
6.64193e-05
7.251e-05
7.94014e-05
8.70029e-05
9.59857e-05
0.000106862
0.00012002
0.000122742
0.000103937
8.71625e-05
7.3612e-05
6.26393e-05
5.32693e-05
4.52951e-05
3.8477e-05
3.26783e-05
2.77947e-05
2.35211e-05
2.00844e-05
1.69077e-05
1.4553e-05
1.21982e-05
1.05372e-05
8.93441e-06
7.88103e-06
8.0003e-06
2.6036e-05
0.000131903
0.000372594
0.00044038
5.69131e-05
5.52678e-05
6.2438e-05
6.28139e-05
6.94547e-05
7.60649e-05
8.34398e-05
9.15327e-05
0.000101062
0.000112606
0.000126589
0.000122979
0.000104282
8.76012e-05
7.41254e-05
6.31006e-05
5.3626e-05
4.55659e-05
3.86857e-05
3.2834e-05
2.79142e-05
2.36095e-05
2.01517e-05
1.69584e-05
1.459e-05
1.2232e-05
1.05542e-05
8.94934e-06
7.89295e-06
8.433e-06
3.23218e-05
0.000153155
0.000422888
0.000423814
5.89547e-05
5.83737e-05
6.50229e-05
6.55835e-05
7.24579e-05
7.9615e-05
8.74837e-05
9.61051e-05
0.000106207
0.00011845
0.000133265
0.00012317
0.000104575
8.79873e-05
7.45853e-05
6.34638e-05
5.38938e-05
4.57576e-05
3.88215e-05
3.29219e-05
2.79633e-05
2.36365e-05
2.01587e-05
1.69624e-05
1.4576e-05
1.22302e-05
1.05313e-05
8.95221e-06
7.9387e-06
9.81297e-06
4.47162e-05
0.00018709
0.000498024
0.00040747
6.10598e-05
6.16518e-05
6.76974e-05
6.84941e-05
7.55298e-05
8.3251e-05
9.15818e-05
0.00010072
0.000111367
0.000124281
0.000139915
0.000123397
0.000104904
8.84084e-05
7.50534e-05
6.3816e-05
5.41595e-05
4.59558e-05
3.89684e-05
3.30307e-05
2.80417e-05
2.36963e-05
2.01993e-05
1.69975e-05
1.45961e-05
1.22538e-05
1.05374e-05
8.96594e-06
7.95879e-06
1.05762e-05
5.26013e-05
0.000214279
0.000514858
0.000391405
6.32615e-05
6.49448e-05
7.0436e-05
7.15352e-05
7.87088e-05
8.70754e-05
9.58741e-05
0.00010561
0.000116877
0.000130597
0.000144088
0.000123553
0.000105166
8.87677e-05
7.53986e-05
6.40483e-05
5.43039e-05
4.60418e-05
3.90108e-05
3.30439e-05
2.80301e-05
2.36761e-05
2.01618e-05
1.69683e-05
1.45491e-05
1.22258e-05
1.04929e-05
8.95793e-06
8.20382e-06
1.46847e-05
7.59701e-05
0.000264481
0.000556394
0.000376887
6.55652e-05
6.81279e-05
7.3204e-05
7.4498e-05
8.18118e-05
9.07908e-05
0.00010002
0.000110329
0.000122163
0.000136621
0.000144195
0.000123774
0.000105487
8.91795e-05
7.57419e-05
6.42956e-05
5.4478e-05
4.61624e-05
3.90819e-05
3.30875e-05
2.80489e-05
2.36864e-05
2.01553e-05
1.69663e-05
1.45321e-05
1.22202e-05
1.0474e-05
8.95882e-06
8.35929e-06
1.73428e-05
9.06569e-05
0.000306947
0.000607721
0.00036198
6.78862e-05
7.13267e-05
7.60221e-05
7.75426e-05
8.49365e-05
9.45463e-05
0.000104162
0.00011504
0.000127395
0.000142542
0.000144386
0.000124075
0.000105883
8.96618e-05
7.61132e-05
6.45784e-05
5.46924e-05
4.63268e-05
3.92052e-05
3.3184e-05
2.81198e-05
2.37452e-05
2.01969e-05
1.70047e-05
1.4557e-05
1.22459e-05
1.04868e-05
8.96581e-06
8.36847e-06
1.79303e-05
9.67063e-05
0.000341245
0.000680709
0.000355309
7.05891e-05
7.50966e-05
7.9454e-05
8.1386e-05
8.88607e-05
9.92794e-05
0.000109315
0.000120897
0.00013383
0.00014972
0.000144486
0.000124291
0.000106201
9.00383e-05
7.63839e-05
6.47695e-05
5.4815e-05
4.64077e-05
3.92513e-05
3.32104e-05
2.81253e-05
2.37452e-05
2.01825e-05
1.69949e-05
1.45334e-05
1.22326e-05
1.04607e-05
8.97138e-06
8.74044e-06
2.35135e-05
0.000120586
0.000402699
0.000768285
0.000353921
7.2928e-05
7.81645e-05
8.22585e-05
8.45498e-05
9.20021e-05
0.000103131
0.000113417
0.000125609
0.000138978
0.000155506
0.00014455
0.000124476
0.000106482
9.03414e-05
7.65934e-05
6.49117e-05
5.49047e-05
4.64642e-05
3.92777e-05
3.32242e-05
2.812e-05
2.37406e-05
2.0163e-05
1.69852e-05
1.45086e-05
1.2221e-05
1.04362e-05
8.98542e-06
9.21843e-06
2.98896e-05
0.000144805
0.000469251
0.000871678
0.000353207
7.54144e-05
8.10523e-05
8.51793e-05
8.76995e-05
9.51997e-05
0.000107025
0.000117537
0.000130382
0.000144182
0.000161426
0.000144573
0.000124616
0.000106727
9.05781e-05
7.67434e-05
6.50012e-05
5.49465e-05
4.64787e-05
3.92654e-05
3.32046e-05
2.8083e-05
2.37097e-05
2.0118e-05
1.69551e-05
1.44639e-05
1.21928e-05
1.04002e-05
9.02305e-06
1.02215e-05
4.05028e-05
0.000178828
0.000557742
0.00101097
0.000356745
7.7871e-05
8.38149e-05
8.81176e-05
9.08737e-05
9.84189e-05
0.000110917
0.000121623
0.000135136
0.000149357
0.000166723
0.000144665
0.000124823
0.000107041
9.08416e-05
7.69271e-05
6.51308e-05
5.50307e-05
4.65383e-05
3.92979e-05
3.32299e-05
2.80904e-05
2.37193e-05
2.01144e-05
1.69584e-05
1.44553e-05
1.21915e-05
1.03894e-05
9.03701e-06
1.0619e-05
4.56995e-05
0.000198318
0.0006385
0.00115609
0.000366589
8.03095e-05
8.64861e-05
9.10842e-05
9.41119e-05
0.000101704
0.000114919
0.000125788
0.000140032
0.000154688
0.000166606
0.000144686
0.000124969
0.000107297
9.10217e-05
7.70366e-05
6.51943e-05
5.50559e-05
4.65454e-05
3.92831e-05
3.32128e-05
2.8059e-05
2.36947e-05
2.00785e-05
1.69342e-05
1.44199e-05
1.21679e-05
1.03617e-05
9.1045e-06
1.20699e-05
5.87171e-05
0.000236566
0.000745798
0.0012989
0.000383284
8.29325e-05
8.89276e-05
9.42766e-05
9.72966e-05
0.000105124
0.000118958
0.000130002
0.000144977
0.000160034
0.000166464
0.000144687
0.000125098
0.000107505
9.11614e-05
7.71139e-05
6.52331e-05
5.50616e-05
4.65382e-05
3.92572e-05
3.31884e-05
2.80219e-05
2.36671e-05
2.00402e-05
1.69099e-05
1.43845e-05
1.21454e-05
1.03372e-05
9.19891e-06
1.38506e-05
7.24985e-05
0.000276927
0.000863536
0.00143511
0.000403215
8.56039e-05
9.12091e-05
9.75116e-05
0.000100456
0.000108591
0.000122981
0.000134184
0.00014987
0.000165279
0.000166305
0.000144673
0.000125213
0.000107667
9.1268e-05
7.71649e-05
6.52523e-05
5.50519e-05
4.65202e-05
3.92227e-05
3.31584e-05
2.79804e-05
2.36368e-05
2.00001e-05
1.68839e-05
1.43485e-05
1.21216e-05
1.03154e-05
9.33747e-06
1.6264e-05
8.86473e-05
0.00032394
0.000996782
0.00156651
0.000427932
8.82004e-05
9.33934e-05
0.000100734
0.00010359
0.000112073
0.000126954
0.000138305
0.000154686
0.000170419
0.000166152
0.000144664
0.000125332
0.0001078
9.13528e-05
7.71982e-05
6.52577e-05
5.50305e-05
4.64931e-05
3.91803e-05
3.3122e-05
2.79333e-05
2.36014e-05
1.99557e-05
1.68534e-05
1.43089e-05
1.20942e-05
1.02963e-05
9.56696e-06
1.98491e-05
0.000108798
0.00038099
0.00114493
0.00169003
0.00045416
9.08794e-05
9.54296e-05
0.000104075
0.00010669
0.000115681
0.000130929
0.00014249
0.000159545
0.000175637
0.000165923
0.000144588
0.00012539
0.000107849
9.13711e-05
7.71742e-05
6.5214e-05
5.49671e-05
4.643e-05
3.91071e-05
3.30593e-05
2.78639e-05
2.35471e-05
1.98951e-05
1.68096e-05
1.4258e-05
1.20581e-05
1.02839e-05
9.99132e-06
2.55326e-05
0.000135065
0.000452327
0.00131316
0.00180572
0.000484213
9.35393e-05
9.74646e-05
0.000107409
0.000109791
0.000119356
0.000134892
0.000146673
0.000164366
0.000180797
0.000165689
0.000144514
0.000125454
0.000107882
9.13836e-05
7.71517e-05
6.51783e-05
5.49153e-05
4.63821e-05
3.90505e-05
3.30147e-05
2.78129e-05
2.35104e-05
1.98525e-05
1.67811e-05
1.42232e-05
1.20346e-05
1.028e-05
1.03703e-05
3.0593e-05
0.000157496
0.000524388
0.0014842
0.00190985
0.000513394
9.60684e-05
9.94588e-05
0.000110697
0.000112887
0.000123068
0.000138803
0.000150833
0.000169117
0.000185893
0.000165405
0.000144389
0.000125462
0.000107834
9.13246e-05
7.70615e-05
6.50781e-05
5.48031e-05
4.62765e-05
3.89407e-05
3.29189e-05
2.77151e-05
2.34297e-05
1.97696e-05
1.67157e-05
1.41546e-05
1.19853e-05
1.03203e-05
1.1704e-05
4.41093e-05
0.0002031
0.000635168
0.00164877
0.00200225
0.000541064
9.85531e-05
0.000101314
0.000113975
0.000115906
0.000126792
0.000142591
0.000154904
0.0001737
0.000188091
0.000165119
0.000144272
0.000125461
0.000107785
9.12748e-05
7.69879e-05
6.50009e-05
5.47173e-05
4.62009e-05
3.88616e-05
3.28553e-05
2.76491e-05
2.33802e-05
1.97173e-05
1.66784e-05
1.4114e-05
1.19586e-05
1.03543e-05
1.26269e-05
5.32384e-05
0.000234901
0.0007366
0.00178271
0.00209562
0.000574629
0.000101038
0.000103166
0.000117287
0.000118887
0.000130574
0.000146273
0.000158918
0.000178108
0.000187528
0.000164764
0.000144097
0.000125388
0.000107678
9.1183e-05
7.68821e-05
6.48994e-05
5.46134e-05
4.61116e-05
3.87727e-05
3.2784e-05
2.75781e-05
2.33256e-05
1.9662e-05
1.66367e-05
1.40708e-05
1.19304e-05
1.04213e-05
1.40686e-05
6.61157e-05
0.000277097
0.000864192
0.00195399
0.00217836
0.000603276
0.000103425
0.000105087
0.000120547
0.000121921
0.000134447
0.000149971
0.000162988
0.000182509
0.000186872
0.00016432
0.000143836
0.000125207
0.000107472
9.10052e-05
7.66972e-05
6.4724e-05
5.44424e-05
4.59593e-05
3.86277e-05
3.26593e-05
2.746e-05
2.32272e-05
1.95678e-05
1.65606e-05
1.39976e-05
1.18908e-05
1.068e-05
1.79994e-05
9.27392e-05
0.000348649
0.00104116
0.00211153
0.00224688
0.00063025
0.00010563
0.000106919
0.000123659
0.000124888
0.00013821
0.000153482
0.000166856
0.000186643
0.000186257
0.000163919
0.000143616
0.000125051
0.000107298
9.08607e-05
7.65483e-05
6.45874e-05
5.43103e-05
4.58474e-05
3.85212e-05
3.25739e-05
2.73786e-05
2.31648e-05
1.95071e-05
1.65153e-05
1.39533e-05
1.18718e-05
1.08795e-05
2.09282e-05
0.000111469
0.000407911
0.00120781
0.00225752
0.00230781
0.000656051
0.000107768
0.000108712
0.00012672
0.000127786
0.000141976
0.000156821
0.000170632
0.000190562
0.000185539
0.000163423
0.000143307
0.000124796
0.000107035
9.06422e-05
7.63342e-05
6.43923e-05
5.41271e-05
4.56887e-05
3.83742e-05
3.24506e-05
2.72645e-05
2.30715e-05
1.94198e-05
1.64452e-05
1.38891e-05
1.18596e-05
1.14276e-05
2.77608e-05
0.000146243
0.000497721
0.00140115
0.00242042
0.00236539
0.000679736
0.000109827
0.000110599
0.000129743
0.000130787
0.000145783
0.000160197
0.000174448
0.00019451
0.000184799
0.000162899
0.000142959
0.000124478
0.000106711
9.03645e-05
7.60619e-05
6.41391e-05
5.38888e-05
4.54755e-05
3.81776e-05
3.22785e-05
2.7107e-05
2.29368e-05
1.92961e-05
1.63423e-05
1.38027e-05
1.1913e-05
1.30088e-05
4.30087e-05
0.000203838
0.000622799
0.00159605
0.00256197
0.00239734
0.00069386
0.000111681
0.00011238
0.000132622
0.000133655
0.0001494
0.00016328
0.000177974
0.000198098
0.000184108
0.000162422
0.000142654
0.000124193
0.000106423
9.01207e-05
7.58239e-05
6.39209e-05
5.36847e-05
4.52964e-05
3.80135e-05
3.21383e-05
2.69795e-05
2.28308e-05
1.91994e-05
1.62641e-05
1.3742e-05
1.20053e-05
1.4712e-05
5.75476e-05
0.000251208
0.000737109
0.00172789
0.00267889
0.00244189
0.000713348
0.000113537
0.000114221
0.000135521
0.000136465
0.00015296
0.000166162
0.000181331
0.00020139
0.000183307
0.000161857
0.000142274
0.000123838
0.000106083
8.9842e-05
7.55629e-05
6.36881e-05
5.34732e-05
4.51141e-05
3.78504e-05
3.20001e-05
2.68567e-05
2.27281e-05
1.91079e-05
1.61891e-05
1.36906e-05
1.21584e-05
1.7013e-05
7.50945e-05
0.000302156
0.000862976
0.00189599
0.00281391
0.0024751
0.000724101
0.000115356
0.000116257
0.000138356
0.000139326
0.000156495
0.00016895
0.000184553
0.000204435
0.000182428
0.000161229
0.00014184
0.000123433
0.000105711
8.95418e-05
7.52895e-05
6.3449e-05
5.32607e-05
4.49336e-05
3.76922e-05
3.18678e-05
2.67415e-05
2.26329e-05
1.9025e-05
1.61223e-05
1.36512e-05
1.23531e-05
1.95845e-05
9.26458e-05
0.00035001
0.000995069
0.00204201
0.00294109
0.0025344
0.000752436
0.000116904
0.000118188
0.00014088
0.000141962
0.000159628
0.00017124
0.000187177
0.000204804
0.000181587
0.000160638
0.000141438
0.000123063
0.000105375
8.92746e-05
7.50485e-05
6.32424e-05
5.30792e-05
4.47834e-05
3.75622e-05
3.17628e-05
2.66513e-05
2.25612e-05
1.89632e-05
1.60745e-05
1.36265e-05
1.25314e-05
2.18432e-05
0.000107457
0.000392064
0.00112456
0.00221963
0.00308088
0.00256513
0.000767366
0.000118449
0.000120193
0.000143404
0.000144621
0.000162678
0.000173438
0.000189705
0.00020346
0.000180539
0.000159845
0.000140829
0.000122491
0.000104851
8.8839e-05
7.46516e-05
6.28868e-05
5.27626e-05
4.45041e-05
3.73174e-05
3.15477e-05
2.64643e-05
2.23981e-05
1.88219e-05
1.59606e-05
1.36238e-05
1.35897e-05
3.2266e-05
0.000156954
0.000498062
0.00131969
0.00240067
0.00319511
0.00256893
0.000773361
0.000119762
0.000122422
0.000145971
0.000147434
0.00016573
0.000175649
0.00019216
0.000201979
0.000179379
0.000158957
0.000140133
0.00012186
0.000104289
8.83792e-05
7.42428e-05
6.25291e-05
5.24515e-05
4.42366e-05
3.70884e-05
3.13528e-05
2.6299e-05
2.22594e-05
1.87052e-05
1.58748e-05
1.36703e-05
1.48107e-05
4.26111e-05
0.000197106
0.000585606
0.00150205
0.00253464
0.00326746
0.00257285
0.000776922
0.00012622
0.000124757
0.000148658
0.000150248
0.00016846
0.00017754
0.000194168
0.000200494
0.000178211
0.000158054
0.000139413
0.000121218
0.000103717
8.79078e-05
7.38225e-05
6.21592e-05
5.21287e-05
4.39567e-05
3.68477e-05
3.11453e-05
2.61219e-05
2.2108e-05
1.85781e-05
1.57885e-05
1.38243e-05
1.70749e-05
5.94147e-05
0.000251496
0.000695658
0.00169886
0.00269847
0.00336132
0.0025863
0.000781793
0.000139936
0.000127887
0.000151367
0.000153143
0.000170985
0.000179313
0.000195985
0.000198936
0.000176975
0.000157081
0.000138622
0.000120524
0.000103101
8.73951e-05
7.33653e-05
6.17547e-05
5.17753e-05
4.36474e-05
3.65818e-05
3.09134e-05
2.59243e-05
2.19375e-05
1.84377e-05
1.57143e-05
1.42047e-05
2.11541e-05
8.45693e-05
0.000318247
0.000822758
0.0018406
0.00285035
0.00343632
0.00258972
0.000783381
0.000142202
0.000130575
0.000154136
0.000156105
0.000173433
0.000181144
0.000197842
0.000197201
0.00017559
0.000155978
0.000137714
0.000119746
0.000102424
8.68382e-05
7.28778e-05
6.13295e-05
5.14104e-05
4.33328e-05
3.63161e-05
3.06856e-05
2.57339e-05
2.17765e-05
1.83109e-05
1.56761e-05
1.47791e-05
2.6291e-05
0.000111515
0.000380585
0.000945218
0.00196736
0.0029862
0.0035043
0.00260391
0.000789036
0.000140971
0.000133221
0.000156808
0.000158982
0.000175616
0.000182789
0.000199466
0.000195402
0.000174145
0.000154814
0.000136745
0.00011893
0.000101716
8.62534e-05
7.23665e-05
6.08829e-05
5.10273e-05
4.30011e-05
3.60362e-05
3.04444e-05
2.55321e-05
2.16051e-05
1.81818e-05
1.56895e-05
1.58164e-05
3.43994e-05
0.000147677
0.000456185
0.00108925
0.00212383
0.00314152
0.00354827
0.00261071
0.00079091
0.00014024
0.000136196
0.000159638
0.000161966
0.000177744
0.000184445
0.000201043
0.000193526
0.000172621
0.000153567
0.000135692
0.000118053
0.000100955
8.56176e-05
7.18088e-05
6.03922e-05
5.06047e-05
4.26322e-05
3.57159e-05
3.01711e-05
2.53036e-05
2.14109e-05
1.80499e-05
1.58287e-05
1.78739e-05
4.82051e-05
0.000198192
0.000552236
0.00126336
0.00227448
0.00327918
0.00358036
0.00260424
0.00078873
0.000139433
0.00013848
0.000161282
0.000163655
0.000178303
0.000184523
0.000200823
0.000191465
0.000170933
0.000152167
0.000134499
0.000117075
0.000100115
8.49175e-05
7.1201e-05
5.98613e-05
5.01521e-05
4.22388e-05
3.53866e-05
2.98822e-05
2.50557e-05
2.12145e-05
1.79446e-05
1.61692e-05
2.11706e-05
6.72393e-05
0.000255772
0.00065602
0.00144903
0.00242278
0.0034054
0.00361191
0.00259735
0.000784687
0.00013769
0.000142255
0.000164495
0.000166924
0.000180489
0.000186382
0.000202487
0.000189281
0.000169123
0.000150644
0.000133184
0.000115978
9.91989e-05
8.41477e-05
7.05316e-05
5.92739e-05
4.96502e-05
4.17999e-05
3.50181e-05
2.95594e-05
2.47804e-05
2.09927e-05
1.78824e-05
1.7007e-05
2.74875e-05
9.82439e-05
0.00033352
0.00078742
0.00166114
0.00258406
0.0035295
0.00363009
0.00258757
0.000779641
0.00013518
0.000146845
0.000168043
0.00017048
0.000182854
0.00018852
0.000204396
0.000187022
0.000167237
0.00014904
0.000131793
0.000114809
9.82514e-05
8.33499e-05
6.98399e-05
5.86677e-05
4.91334e-05
4.13484e-05
3.464e-05
2.92284e-05
2.45084e-05
2.07877e-05
1.79449e-05
1.85842e-05
3.74442e-05
0.000139075
0.000419696
0.000928831
0.00188181
0.00274132
0.00363944
0.00364855
0.00257427
0.0007714
0.000138852
0.000151762
0.000172096
0.000174402
0.000185628
0.000191224
0.00020571
0.000184593
0.000165185
0.000147273
0.000130243
0.00011349
9.72029e-05
8.24619e-05
6.90705e-05
5.79921e-05
4.8557e-05
4.08434e-05
3.42163e-05
2.88575e-05
2.42135e-05
2.06092e-05
1.83106e-05
2.19315e-05
5.52965e-05
0.000199022
0.000528969
0.00109924
0.00207776
0.00290498
0.00374476
0.00365533
0.00255738
0.000761087
0.000143254
0.000157395
0.000176642
0.000178716
0.000188888
0.000194575
0.000202707
0.000181998
0.000162968
0.000145341
0.000128534
0.000112028
9.60568e-05
8.14882e-05
6.82287e-05
5.72539e-05
4.79281e-05
4.02927e-05
3.37548e-05
2.84567e-05
2.39119e-05
2.05316e-05
1.93413e-05
2.85349e-05
8.48289e-05
0.000279066
0.000658507
0.00129386
0.0022291
0.00306881
0.00384162
0.00365709
0.00253383
0.000746105
0.000148296
0.000163726
0.000181675
0.000183478
0.000192751
0.000198695
0.000199601
0.000179297
0.000160635
0.000143282
0.000126698
0.000110445
9.48028e-05
8.04311e-05
6.73121e-05
5.64473e-05
4.72383e-05
3.96868e-05
3.32456e-05
2.80218e-05
2.36324e-05
2.0752e-05
2.19973e-05
4.21427e-05
0.000135024
0.000388903
0.000821209
0.00152586
0.00238434
0.00322968
0.00392636
0.00364558
0.00250351
0.000727215
0.000154551
0.000171412
0.000187869
0.000189298
0.000197899
0.000204259
0.000196336
0.000176438
0.000158137
0.000141053
0.000124692
0.000108701
9.33844e-05
7.92529e-05
6.62881e-05
5.55439e-05
4.64629e-05
3.90043e-05
3.26743e-05
2.75622e-05
2.34978e-05
2.18999e-05
2.89067e-05
7.11485e-05
0.000220494
0.000541354
0.00103172
0.00180536
0.00256209
0.00339698
0.00400681
0.00361945
0.00245318
0.00069611
0.000161627
0.000179443
0.000194219
0.000195551
0.000203932
0.00021098
0.000193003
0.000173512
0.000155559
0.000138735
0.000122597
0.000106868
9.18641e-05
7.79908e-05
6.51912e-05
5.45774e-05
4.56328e-05
3.82778e-05
3.20825e-05
2.71789e-05
2.38641e-05
2.53156e-05
4.43809e-05
0.000124268
0.000343705
0.000727412
0.00127655
0.00210965
0.00267462
0.00349513
0.0040148
0.0035762
0.00241865
0.000675838
0.000169673
0.000189084
0.000202386
0.000203295
0.000211353
0.000210767
0.000190179
0.000171018
0.000153342
0.000136726
0.000120769
0.000105257
9.05043e-05
7.68436e-05
6.4187e-05
5.36878e-05
4.48634e-05
3.76073e-05
3.15697e-05
2.70418e-05
2.52356e-05
3.2695e-05
7.2939e-05
0.000206855
0.000501833
0.00094466
0.00155153
0.00236469
0.002846
0.0036089
0.00404216
0.00350257
0.00232261
0.00062212
0.000175194
0.000194309
0.000205867
0.000207145
0.000215912
0.000208082
0.000187784
0.000168892
0.000151438
0.00013499
0.000119182
0.00010385
8.93003e-05
7.58123e-05
6.32766e-05
5.28756e-05
4.41558e-05
3.70005e-05
3.1176e-05
2.73336e-05
2.83194e-05
4.62245e-05
0.000118482
0.000316993
0.000680383
0.00117508
0.00183463
0.00216419
0.00274383
0.00349406
0.00375897
0.00325362
0.00216417
0.000573658
1.7008e-05
1.51652e-05
1.47557e-05
1.45938e-05
1.44829e-05
1.46268e-05
1.5075e-05
1.58199e-05
1.68936e-05
1.8354e-05
2.0271e-05
2.27465e-05
2.58025e-05
2.9754e-05
3.38475e-05
3.85213e-05
4.38269e-05
3.84782e-05
3.12606e-05
2.55692e-05
2.10574e-05
1.75117e-05
1.46553e-05
1.25044e-05
1.06426e-05
9.41869e-06
8.05442e-06
7.11919e-06
6.13986e-06
5.65249e-06
5.5552e-06
6.96894e-06
8.24339e-06
4.98901e-07
1.62126e-05
1.46168e-05
1.43815e-05
1.4259e-05
1.41264e-05
1.42374e-05
1.4636e-05
1.53069e-05
1.62803e-05
1.76087e-05
1.9351e-05
2.1594e-05
2.44541e-05
2.84023e-05
3.2209e-05
3.6237e-05
4.12032e-05
3.82851e-05
3.11222e-05
2.54616e-05
2.0969e-05
1.74255e-05
1.45751e-05
1.24031e-05
1.05441e-05
9.35235e-06
8.00111e-06
7.13946e-06
6.12049e-06
5.63344e-06
5.38809e-06
6.73602e-06
8.11881e-06
4.84124e-07
1.51311e-05
1.38182e-05
1.3626e-05
1.35257e-05
1.34212e-05
1.35414e-05
1.39275e-05
1.45658e-05
1.54837e-05
1.67288e-05
1.83544e-05
2.06265e-05
2.32798e-05
2.66992e-05
3.02614e-05
3.43466e-05
3.89683e-05
3.81705e-05
3.10441e-05
2.5401e-05
2.09172e-05
1.73691e-05
1.45189e-05
1.2323e-05
1.04645e-05
9.27688e-06
7.95318e-06
7.15675e-06
6.11245e-06
5.6181e-06
5.20534e-06
6.42342e-06
7.96375e-06
4.552e-07
1.45759e-05
1.33336e-05
1.31346e-05
1.30486e-05
1.29638e-05
1.30815e-05
1.34465e-05
1.40482e-05
1.49106e-05
1.61967e-05
1.77353e-05
1.96988e-05
2.21768e-05
2.53664e-05
2.8675e-05