/*--------------------------------*- C++ -*----------------------------------*\
| =========                 |                                                 |
| \\      /  F ield         | OpenFOAM: The Open Source CFD Toolbox           |
|  \\    /   O peration     | Version:  2.3.0                                 |
|   \\  /    A nd           | Web:      www.OpenFOAM.org                      |
|    \\/     M anipulation  |                                                 |
\*---------------------------------------------------------------------------*/
FoamFile
{
    version     2.0;
    format      ascii;
    class       surfaceScalarField;
    location    "397";
    object      phi;
}
// * * * * * * * * * * * * * * * * * * * * * * * * * * * * * * * * * * * * * //

dimensions      [0 3 -1 0 0 0 0];

internalField   nonuniform List<scalar> 
56756
(
0.390034
0.767471
-0.747805
-0.409701
0.370395
0.766711
-0.747071
0.350759
0.765861
-0.746225
0.331102
0.765014
-0.745357
0.311425
0.764151
-0.744473
0.291727
0.763294
-0.743597
0.272008
0.762472
-0.742753
0.252271
0.761702
-0.741965
0.232525
0.761014
-0.741268
0.212782
0.760449
-0.740706
0.193061
0.760061
-0.74034
0.173393
0.759925
-0.740257
0.15382
0.760142
-0.740569
0.13421
0.768375
-0.748766
0.116599
0.699734
-0.682122
0.100845
0.637731
-0.621976
0.0868154
0.581682
-0.567653
0.0743828
0.530965
-0.518532
0.0634206
0.485005
-0.474043
0.0538028
0.443299
-0.433681
0.0454067
0.405367
-0.396971
0.0381099
0.370853
-0.363556
0.0317938
0.339291
-0.332975
0.0263515
0.310602
-0.30516
0.0216484
0.284081
-0.279378
0.0176482
0.260192
-0.256192
0.0141504
0.237735
-0.234237
0.0113042
0.217853
-0.215007
0.0086607
0.198823
-0.196179
0.00669627
0.181969
-0.180005
0.0045347
0.166094
-0.163933
0.00322042
0.151539
-0.150225
0.000990593
0.140851
-0.138621
0.110905
-0.109914
0.345637
0.784641
-0.362806
0.328417
0.78393
0.311179
0.783099
0.29392
0.782273
0.276633
0.781438
0.259321
0.780607
0.241983
0.779809
0.224624
0.779061
0.207253
0.778386
0.18988
0.777821
0.172526
0.777415
0.155216
0.777235
0.137987
0.777371
0.120726
0.785636
0.105223
0.715238
0.091354
0.651599
0.0790045
0.594032
0.0680607
0.541908
0.0584113
0.494654
0.0499452
0.451765
0.0425529
0.412759
0.0361266
0.377279
0.0305551
0.344863
0.0257558
0.315402
0.0215887
0.288248
0.0180388
0.263742
0.0149109
0.240863
0.0123146
0.220449
0.00985908
0.201278
0.00794555
0.183882
0.00575787
0.168282
0.00434745
0.15295
0.00193816
0.14326
0.112843
0.309351
0.799934
-0.324644
0.294007
0.799274
0.278625
0.798481
0.263209
0.79769
0.247756
0.79689
0.23227
0.796093
0.216756
0.795324
0.201217
0.7946
0.185661
0.793943
0.170097
0.793385
0.154543
0.792969
0.139022
0.792756
0.123567
0.792825
0.108078
0.801125
0.094159
0.729157
0.0817021
0.664056
0.0706036
0.605131
0.0607612
0.551751
0.0520743
0.503341
0.0444434
0.459396
0.037769
0.419434
0.0319579
0.38309
0.0269025
0.349918
0.0225415
0.319763
0.0187288
0.292061
0.0154719
0.266999
0.0125681
0.243767
0.0101353
0.222882
0.00781787
0.203596
0.00599712
0.185703
0.00394721
0.170332
0.00276122
0.154136
0.000982034
0.145039
0.113825
0.274839
0.81357
-0.288475
0.261172
0.812942
0.247454
0.812198
0.233699
0.811445
0.219908
0.810681
0.20608
0.809922
0.192217
0.809187
0.178324
0.808492
0.164409
0.807858
0.150479
0.807314
0.136548
0.806899
0.122639
0.806665
0.10878
0.806684
0.0948768
0.815029
0.0823697
0.741664
0.0711637
0.675262
0.0611666
0.615128
0.0522883
0.560629
0.0444399
0.511189
0.0375337
0.466302
0.03148
0.425487
0.0261997
0.38837
0.0215944
0.354523
0.0176199
0.323737
0.0141477
0.295533
0.0112006
0.269946
0.00859656
0.246371
0.00648951
0.224989
0.00452177
0.205563
0.00315636
0.187069
0.00161724
0.171871
0.000895753
0.154857
-0.000100008
0.146035
0.113725
0.259299
0.826191
-0.27192
0.246657
0.825584
0.233937
0.824918
0.221171
0.824211
0.208369
0.823482
0.195526
0.822765
0.182642
0.822071
0.169723
0.821411
0.156773
0.820808
0.1438
0.820287
0.130817
0.819883
0.11784
0.819641
0.104897
0.819627
0.0918972
0.828029
0.0801856
0.753376
0.0696751
0.685773
0.0602802
0.624522
0.0519177
0.568992
0.0445047
0.518602
0.0379626
0.472844
0.0322077
0.431242
0.0271754
0.393403
0.02277
0.358929
0.0189638
0.327543
0.0156271
0.29887
0.012795
0.272778
0.0102744
0.248891
0.00823162
0.227032
0.00626721
0.207528
0.00484321
0.188493
0.00324102
0.173473
0.00231133
0.155787
0.000922604
0.147424
0.114648
0.230959
0.837337
-0.242105
0.219822
0.836721
0.208604
0.836135
0.197329
0.835487
0.186011
0.834799
0.174647
0.834129
0.163235
0.833483
0.151778
0.832868
0.14028
0.832306
0.128748
0.83182
0.117191
0.83144
0.105623
0.831209
0.0940663
0.831184
0.0824378
0.839657
0.0719414
0.763872
0.0625024
0.695212
0.0540478
0.632977
0.0465066
0.576533
0.0398069
0.525302
0.0338814
0.47877
0.0286536
0.43647
0.0240698
0.397986
0.0200404
0.362958
0.0165436
0.33104
0.0134637
0.30195
0.0108342
0.275408
0.00848507
0.251241
0.00659073
0.228926
0.00475803
0.209361
0.00347676
0.189774
0.00203359
0.174916
0.00128336
0.156537
0.000283494
0.148424
0.114931
0.213133
0.847393
-0.223188
0.203064
0.84679
0.192912
0.846287
0.18269
0.845709
0.172415
0.845074
0.162086
0.844458
0.151701
0.843868
0.141262
0.843307
0.130771
0.842796
0.120234
0.842357
0.109658
0.842016
0.0990553
0.841812
0.0884446
0.841795
0.077748
0.850354
0.0680736
0.773546
0.0593562
0.703929
0.0515307
0.640803
0.0445338
0.58353
0.0383005
0.531536
0.032773
0.484297
0.0278801
0.441363
0.0235805
0.402286
0.0197879
0.36675
0.0164946
0.334334
0.0135799
0.304864
0.0111
0.277887
0.00885613
0.253484
0.00705681
0.230726
0.00527989
0.211137
0.00402129
0.191033
0.00260508
0.176333
0.00175979
0.157382
0.000657364
0.149526
0.115588
0.193784
0.856264
-0.202656
0.184948
0.855626
0.176011
0.855225
0.166979
0.854742
0.157882
0.854171
0.148721
0.853619
0.139495
0.853094
0.130204
0.852599
0.120848
0.852152
0.111431
0.851773
0.101959
0.851489
0.0924411
0.85133
0.0828911
0.851345
0.0732365
0.860009
0.0644785
0.782304
0.056563
0.711844
0.0494367
0.647929
0.0430476
0.589919
0.0373397
0.537243
0.032265
0.489372
0.0277577
0.44587
0.0237837
0.40626
0.0202612
0.370273
0.0171815
0.337413
0.0144365
0.307609
0.0120679
0.280256
0.00990959
0.255643
0.00813517
0.2325
0.00635849
0.212914
0.00501457
0.192376
0.00348836
0.177859
0.0024378
0.158433
0.00109675
0.150867
0.116685
0.176061
0.864196
-0.183992
0.16816
0.863526
0.160159
0.863227
0.152061
0.862839
0.14389
0.862342
0.135646
0.861863
0.127324
0.861416
0.118923
0.861
0.110443
0.860632
0.101884
0.860332
0.0932502
0.860122
0.0845479
0.860032
0.0757885
0.860104
0.0669025
0.868895
0.0588127
0.790394
0.0514749
0.719182
0.0448435
0.65456
0.038875
0.595887
0.0335207
0.542598
0.0287426
0.49415
0.0244826
0.45013
0.0207189
0.410024
0.017376
0.373616
0.0144616
0.340328
0.0118628
0.310208
0.0096505
0.282468
0.00761832
0.257675
0.00599294
0.234125
0.00438283
0.214524
0.00321385
0.193545
0.00195232
0.17912
0.0011261
0.159259
0.000280314
0.151713
0.116965
0.166411
0.871463
-0.173677
0.159142
0.870794
0.151762
0.870607
0.144291
0.87031
0.136734
0.869898
0.129091
0.869507
0.121361
0.869146
0.113539
0.868821
0.105623
0.868548
0.097613
0.868342
0.0895088
0.868227
0.0813141
0.868227
0.0730363
0.868382
0.0646052
0.877326
0.0568959
0.798103
0.0498721
0.726206
0.0434964
0.660936
0.0377338
0.60165
0.0325424
0.547789
0.0278921
0.4988
0.0237297
0.454293
0.0200389
0.413714
0.0167494
0.376905
0.0138693
0.343208
0.0113001
0.312777
0.00910626
0.284662
0.00711974
0.259661
0.00552351
0.235722
0.00398665
0.216061
0.00286657
0.194665
0.00171392
0.180273
0.000942693
0.16003
0.000178067
0.152477
0.117144
0.143179
0.877478
-0.149194
0.137182
0.876791
0.131069
0.87672
0.124853
0.876526
0.118536
0.876216
0.112118
0.875924
0.1056
0.875665
0.0989752
0.875446
0.0922396
0.875284
0.0853913
0.875191
0.0784294
0.875188
0.0713556
0.875301
0.0641753
0.875562
0.0568259
0.884675
0.0500736
0.804856
0.0438934
0.732386
0.0382565
0.666573
0.0331367
0.60677
0.0284988
0.552427
0.0243224
0.502977
0.0205629
0.458052
0.0172155
0.417062
0.0142213
0.379899
0.0116044
0.345825
0.00926776
0.315114
0.00730022
0.28663
0.00549666
0.261465
0.00411273
0.237106
0.002765
0.217409
0.00188442
0.195546
0.000970572
0.181187
0.000550744
0.16045
9.14384e-05
0.152937
0.117235
0.144515
0.882851
-0.149887
0.139125
0.88218
0.13361
0.882236
0.127983
0.882153
0.122239
0.881959
0.116382
0.881781
0.110412
0.881635
0.104322
0.881536
0.0981072
0.881499
0.0917632
0.881535
0.0852877
0.881664
0.0786799
0.881909
0.0719417
0.882301
0.0650105
0.891606
0.0586085
0.811258
0.0527183
0.738276
0.0473183
0.671973
0.0423886
0.6117
0.0378973
0.556918
0.0338258
0.507048
0.030127
0.461751
0.0267881
0.420401
0.0237432
0.382944
0.0209923
0.348576
0.0184522
0.317654
0.0161633
0.288919
0.0139752
0.263653
0.0119994
0.239081
0.0100076
0.219401
0.00813145
0.197422
0.00620678
0.183112
0.00428442
0.162372
0.00220911
0.155012
0.119444
0.128566
0.887566
-0.133281
0.123828
0.886918
0.118957
0.887108
0.113965
0.887144
0.108839
0.887085
0.103583
0.887037
0.0981977
0.88702
0.0926751
0.887059
0.0870089
0.887165
0.0811942
0.887349
0.0752272
0.887631
0.0691059
0.88803
0.0628313
0.888575
0.0563433
0.898094
0.0503207
0.81728
0.044752
0.743845
0.0396186
0.677106
0.0349034
0.616415
0.030575
0.561247
0.0266173
0.511006
0.022988
0.46538
0.0196816
0.423707
0.0166491
0.385977
0.013906
0.351319
0.0113768
0.320183
0.00912666
0.291169
0.00701831
0.265762
0.00522798
0.240872
0.00353277
0.221096
0.00218386
0.198771
0.000928023
0.184367
2.4309e-05
0.163276
-0.000529491
0.155566
0.118915
0.116259
0.891736
-0.12043
0.112042
0.891135
0.107678
0.891471
0.103187
0.891636
0.0985459
0.891726
0.0937608
0.891822
0.0888321
0.891949
0.0837509
0.89214
0.07851
0.892406
0.0731031
0.892756
0.0675246
0.893209
0.0617699
0.893784
0.0558369
0.894508
0.0496651
0.904266
0.043902
0.823043
0.0385473
0.7492
0.033596
0.682058
0.0290465
0.620964
0.0248852
0.565408
0.0211143
0.514777
0.0177084
0.468786
0.0146735
0.426742
0.0119605
0.38869
0.00959125
0.353688
0.00748563
0.322289
0.00571166
0.292943
0.00412265
0.267351
0.00287091
0.242123
0.00172598
0.222241
0.000891831
0.199605
0.000100824
0.185158
-0.000506928
0.163884
-0.000782774
0.155842
0.118132
0.111518
0.895071
-0.114853
0.108098
0.894555
0.104543
0.895026
0.100847
0.895332
0.0969875
0.895586
0.0929709
0.895839
0.0887973
0.896122
0.0844583
0.896479
0.0799463
0.896918
0.0752552
0.897447
0.0703796
0.898085
0.0653163
0.898848
0.0600648
0.89976
0.0545733
0.909757
0.0494232
0.828194
0.0446195
0.754004
0.0401577
0.686519
0.0360335
0.625088
0.0322237
0.569218
0.0287184
0.518282
0.0254816
0.472023
0.0225082
0.429716
0.0197636
0.391434
0.0172517
0.3562
0.0149301
0.324611
0.0128134
0.295059
0.010799
0.269365
0.00894547
0.243977
0.00715831
0.224028
0.00544172
0.201322
0.00382546
0.186775
0.00217791
0.165531
0.00072081
0.157299
0.118853
0.105015
0.898031
-0.107975
0.101933
0.897637
0.0987087
0.89825
0.0953393
0.898701
0.0917938
0.899131
0.0880802
0.899553
0.0841975
0.900005
0.0801372
0.900539
0.0758918
0.901163
0.0714539
0.901885
0.0668171
0.902722
0.0619755
0.903689
0.0569244
0.904811
0.0516069
0.915075
0.0465801
0.83322
0.0418507
0.758733
0.0374164
0.690954
0.033277
0.629228
0.0294214
0.573073
0.0258514
0.521852
0.0225443
0.47533
0.0194909
0.432769
0.0166563
0.394269
0.0140404
0.358816
0.011596
0.327055
0.00936875
0.297286
0.00727456
0.271459
0.00540737
0.245844
0.00367966
0.225756
0.00214706
0.202854
0.000797644
0.188124
-0.000408934
0.166738
-0.000887413
0.157777
0.117965
0.0914521
0.900608
-0.0940287
0.0887371
0.900352
0.0858781
0.901109
0.0828626
0.901717
0.079659
0.902335
0.0762754
0.902936
0.0727096
0.903571
0.0689536
0.904295
0.0649999
0.905117
0.0608419
0.906043
0.0564745
0.907089
0.051895
0.908269
0.047104
0.909602
0.0420564
0.920122
0.0372957
0.837981
0.0328399
0.763189
0.028697
0.695097
0.0248737
0.633051
0.0213573
0.57659
0.0181455
0.525064
0.0152199
0.478255
0.0125783
0.435411
0.0101949
0.396652
0.00807442
0.360936
0.00618389
0.328945
0.00454672
0.298924
0.00308539
0.272921
0.00184386
0.247086
0.000751678
0.226848
-0.000195866
0.203802
-0.000993385
0.188922
-0.00180478
0.167549
-0.00163584
0.157608
0.116329
0.0896731
0.902697
-0.0917626
0.0874038
0.902621
0.0850052
0.903507
0.0824421
0.90428
0.0796874
0.90509
0.0767481
0.905875
0.0736219
0.906697
0.0703023
0.907615
0.0667832
0.908636
0.0630582
0.909768
0.0591235
0.911024
0.054976
0.912416
0.0506154
0.913963
0.0459967
0.924741
0.0416122
0.842366
0.0374779
0.767323
0.0335978
0.698977
0.0299754
0.636673
0.0266053
0.57996
0.0234822
0.528187
0.0205954
0.481142
0.0179378
0.438068
0.0154896
0.399101
0.0132231
0.363203
0.0111092
0.331059
0.00913854
0.300894
0.00727417
0.274785
0.00550862
0.248851
0.00386945
0.228487
0.00223995
0.205431
0.0008417
0.19032
-0.000685293
0.169076
-0.000980268
0.157903
0.115349
0.0821285
0.905124
-0.084555
0.0795174
0.905232
0.0767818
0.906243
0.0738862
0.907176
0.0708037
0.908172
0.0675423
0.909137
0.0640997
0.91014
0.0604715
0.911243
0.0566522
0.912455
0.0526373
0.913783
0.0484236
0.915238
0.0440112
0.916829
0.0394023
0.918571
0.0345564
0.929587
0.0299965
0.846926
0.02574
0.771579
0.0217976
0.702919
0.0181743
0.640297
0.0148659
0.583268
0.0118687
0.531184
0.00917073
0.48384
0.00675013
0.440489
0.00460397
0.401247
0.00272788
0.365079
0.00111776
0.33267
-0.000233568
0.302246
-0.00133474
0.275886
-0.00223216
0.249749
-0.00283368
0.229089
-0.00336932
0.205967
-0.00353462
0.190485
-0.0037943
0.169336
-0.00272392
0.156833
0.112625
0.0742739
0.906774
-0.0759242
0.0724614
0.907045
0.0705554
0.908149
0.0685149
0.909216
0.066319
0.910368
0.0639753
0.911481
0.0614844
0.912631
0.0588454
0.913882
0.0560568
0.915244
0.0531168
0.916723
0.0500266
0.918328
0.046788
0.920067
0.043406
0.921953
0.0398508
0.933142
0.0365017
0.850275
0.033366
0.774715
0.0304384
0.705847
0.0277137
0.643021
0.0251786
0.585803
0.0228157
0.533547
0.0206148
0.486041
0.0185588
0.442545
0.0166295
0.403176
0.0147793
0.366929
0.0129962
0.334453
0.011231
0.304011
0.00951107
0.277606
0.00772731
0.251532
0.00596415
0.230852
0.00409592
0.207835
0.00238184
0.192199
0.000439312
0.171279
-0.000164201
0.157436
0.112461
0.0673218
0.90917
-0.0697173
0.06478
0.909587
0.0621612
0.910768
0.0594281
0.911949
0.0565597
0.913236
0.0535659
0.914474
0.0504466
0.91575
0.0472034
0.917125
0.0438355
0.918612
0.0403424
0.920216
0.0367248
0.921945
0.0329854
0.923807
0.0291269
0.925812
0.025115
0.937154
0.0213728
0.854017
0.0178996
0.778188
0.0146922
0.709054
0.011744
0.64597
0.00904883
0.588499
0.00660207
0.535994
0.00439343
0.48825
0.00241095
0.444527
0.000661011
0.404926
-0.000855539
0.368445
-0.00213725
0.335734
-0.00319674
0.30507
-0.00400569
0.278415
-0.00465594
0.252183
-0.00503283
0.231229
-0.00533187
0.208134
-0.0052424
0.19211
-0.00512397
0.17116
-0.00335883
0.155671
0.109102
0.0597384
0.911194
-0.0617629
0.0575864
0.911739
0.055377
0.912977
0.0530739
0.914252
0.0506601
0.91565
0.0481446
0.91699
0.0455289
0.918366
0.0428168
0.919837
0.0400098
0.921419
0.0371096
0.923116
0.0341206
0.924934
0.0310485
0.926879
0.0279028
0.928958
0.0246627
0.940394
0.0216765
0.857003
0.0189436
0.780921
0.0164552
0.711543
0.0142046
0.64822
0.0121727
0.59053
0.0103415
0.537825
0.00869587
0.489895
0.00722352
0.446
0.00590483
0.406245
0.00472217
0.369628
0.00365284
0.336804
0.00267759
0.306046
0.00179138
0.279301
0.000942605
0.253031
0.000252792
0.231918
-0.000556733
0.208944
-0.00123499
0.192788
-0.001996
0.171921
-0.00149291
0.155168
0.107609
0.0534383
0.912918
-0.0551619
0.051604
0.913573
0.0497303
0.914851
0.0477816
0.916201
0.0457413
0.91769
0.0436207
0.919111
0.0414206
0.920566
0.0391469
0.922111
0.0368016
0.923764
0.034388
0.92553
0.0319101
0.927412
0.0293743
0.929415
0.0267862
0.931546
0.0241277
0.943053
0.0216761
0.859455
0.0194224
0.783175
0.0173529
0.713612
0.015451
0.650122
0.013705
0.592276
0.0120981
0.539432
0.0106054
0.491388
0.00920415
0.447401
0.00787466
0.407574
0.0066033
0.370899
0.00537997
0.338027
0.00418809
0.307238
0.00304009
0.280449
0.00190822
0.254163
0.000895229
0.232931
-0.000176264
0.210015
-0.00106772
0.193679
-0.00195319
0.172807
-0.0014141
0.154629
0.106195
0.0528425
0.915432
-0.0553569
0.0502222
0.916193
0.0475868
0.917486
0.044884
0.918904
0.0421078
0.920466
0.0392647
0.921954
0.0363573
0.923473
0.0333919
0.925077
0.0303709
0.926785
0.0272971
0.928604
0.0241752
0.930534
0.0210098
0.93258
0.0178078
0.934748
0.014544
0.946317
0.01156
0.862439
0.00884404
0.785891
0.00638295
0.716073
0.00416784
0.652337
0.00218342
0.594261
0.0004256
0.54119
-0.00110965
0.492923
-0.00242629
0.448718
-0.00352788
0.408676
-0.00442268
0.371794
-0.00510919
0.338713
-0.0056237
0.307752
-0.00592723
0.280753
-0.00612343
0.254359
-0.00606805
0.232876
-0.00599703
0.209944
-0.00560775
0.19329
-0.00517255
0.172372
-0.00324022
0.152697
0.102955
0.0511228
0.917466
-0.0531571
0.0489899
0.918326
0.0468515
0.919625
0.0446616
0.921094
0.0424151
0.922713
0.040119
0.92425
0.0377758
0.925816
0.0353931
0.927459
0.0329737
0.929205
0.0305219
0.931056
0.0280429
0.933013
0.025544
0.935079
0.0230327
0.937259
0.0204961
0.948853
0.0181992
0.864735
0.0161294
0.787961
0.0142698
0.717933
0.0126013
0.654006
0.011104
0.595758
0.00975275
0.542541
0.00852907
0.494147
0.00741227
0.449834
0.00638747
0.409701
0.00543106
0.372751
0.00453597
0.339609
0.00367324
0.308615
0.00283773
0.281588
0.00198985
0.255207
0.00116163
0.233704
0.000278873
0.210827
-0.000546268
0.194115
-0.00135143
0.173177
-0.000927662
0.152273
0.102027
0.0406927
0.919203
-0.042429
0.0388835
0.920136
0.0370758
0.921432
0.0352326
0.922937
0.0333469
0.924599
0.0314275
0.926169
0.0294763
0.927767
0.0275015
0.929434
0.0255068
0.931199
0.0234967
0.933066
0.0214772
0.935033
0.0194538
0.937102
0.0174329
0.93928
0.0153985
0.950888
0.0135578
0.866576
0.01189
0.789629
0.0103736
0.719449
0.00899092
0.655388
0.0077235
0.597026
0.00655875
0.543706
0.0054761
0.49523
0.00446033
0.45085
0.00349601
0.410665
0.0025767
0.37367
0.0017014
0.340484
0.000855778
0.30946
8.09565e-05
0.282363
-0.000683073
0.255971
-0.00133658
0.234358
-0.00201217
0.211503
-0.00247059
0.194574
-0.00275594
0.173462
-0.00163964
0.151157
0.100388
0.0376933
0.921269
-0.0397599
0.035558
0.922271
0.0334314
0.923559
0.0312785
0.92509
0.0290946
0.926783
0.0268873
0.928376
0.0246584
0.929996
0.022416
0.931676
0.0201629
0.933452
0.0179039
0.935325
0.0156434
0.937293
0.0133874
0.939358
0.0111411
0.941526
0.00889095
0.953138
0.00686817
0.868599
0.00505808
0.791439
0.00344584
0.721062
0.00201682
0.656817
0.000759332
0.598283
-0.000339731
0.544805
-0.0012851
0.496175
-0.00208739
0.451652
-0.00274714
0.411325
-0.00328498
0.374208
-0.00369863
0.340898
-0.00401867
0.30978
-0.00419678
0.282541
-0.00435319
0.256128
-0.00436405
0.234369
-0.00442505
0.211564
-0.00426806
0.194417
-0.00397223
0.173166
-0.00228342
0.149468
0.0981042
0.0322018
0.922953
-0.0338857
0.0304607
0.924012
0.0287339
0.925286
0.0269925
0.926831
0.0252315
0.928544
0.0234599
0.930148
0.021679
0.931777
0.0198975
0.933458
0.0181191
0.935231
0.0163496
0.937094
0.0145962
0.939047
0.0128662
0.941088
0.0111704
0.943222
0.00950289
0.954805
0.0080401
0.870062
0.00676339
0.792715
0.00565437
0.722171
0.0046956
0.657776
0.00386409
0.599115
0.00314322
0.545526
0.00250977
0.496808
0.00194802
0.452214
0.00143689
0.411836
0.000965131
0.37468
0.000523547
0.341339
8.36131e-05
0.31022
-0.000337781
0.282962
-0.000790706
0.256581
-0.00120342
0.234781
-0.0017217
0.212082
-0.00207283
0.194768
-0.00226694
0.17336
-0.00119615
0.148397
0.0969081
0.0271438
0.92485
-0.0290401
0.0252006
0.925955
0.0232774
0.927209
0.0213468
0.928762
0.0194054
0.930485
0.0174623
0.932091
0.0155178
0.933722
0.0135812
0.935395
0.0116552
0.937157
0.00974587
0.939004
0.00785875
0.940934
0.00600077
0.942946
0.00417837
0.945044
0.00238311
0.956601
0.000796794
0.871648
-0.000599624
0.794112
-0.00182516
0.723396
-0.00289729
0.658848
-0.0038266
0.600044
-0.00462636
0.546325
-0.00530291
0.497485
-0.00586514
0.452776
-0.00630975
0.412281
-0.00665195
0.375022
-0.00687529
0.341562
-0.00701135
0.310356
-0.00701022
0.282961
-0.00696548
0.256536
-0.00672979
0.234546
-0.00647751
0.21183
-0.00599994
0.19429
-0.00506305
0.172423
-0.00276185
0.146096
0.0941462
0.0258507
0.926555
-0.0275558
0.0241068
0.927699
0.0223894
0.928926
0.0206724
0.930479
0.0189548
0.932203
0.0172433
0.933803
0.0155395
0.935426
0.0138515
0.937083
0.0121826
0.938826
0.0105383
0.940648
0.00892413
0.942548
0.00734623
0.944524
0.00581286
0.946578
0.00431728
0.958096
0.00301577
0.87295
0.00188873
0.795239
0.000922015
0.724363
9.99228e-05
0.65967
-0.000592957
0.600737
-0.00117024
0.546903
-0.00164143
0.497956
-0.00202006
0.453155
-0.00231192
0.412572
-0.00253803
0.375248
-0.00269546
0.34172
-0.00282304
0.310484
-0.00289307
0.283031
-0.00294968
0.256593
-0.00297241
0.234568
-0.00304657
0.211904
-0.00303006
0.194274
-0.00267601
0.172069
-0.00127757
0.144697
0.0928687
0.0231122
0.927802
-0.0243598
0.0218332
0.928978
0.0205869
0.930173
0.0193478
0.931718
0.018117
0.933433
0.0169009
0.935019
0.0157002
0.936626
0.0145233
0.938259
0.0133726
0.939976
0.0122536
0.941767
0.0111707
0.943631
0.0101291
0.945566
0.00913356
0.947573
0.00818074
0.959049
0.00736241
0.873768
0.0066604
0.795941
0.00605378
0.72497
0.00552423
0.6602
0.00505558
0.601205
0.00462834
0.54733
0.00422685
0.498358
0.00383214
0.45355
0.00343446
0.41297
0.00301272
0.37567
0.00257206
0.342161
0.00208198
0.310974
0.00157674
0.283537
0.00101388
0.257155
0.000459301
0.235123
-0.000220183
0.212583
-0.000723387
0.194777
-0.000937803
0.172284
-0.000192867
0.143953
0.0926758
0.0171185
0.929137
-0.0184532
0.0157609
0.930336
0.0144361
0.931498
0.0131244
0.933029
0.0118264
0.934731
0.0105494
0.936296
0.00929307
0.937883
0.00806554
0.939487
0.00686866
0.941173
0.00570746
0.942928
0.00458594
0.944752
0.00350781
0.946644
0.00247769
0.948603
0.00148757
0.960039
0.000634866
0.874621
-0.000104873
0.796681
-0.000747169
0.725612
-0.00131189
0.660765
-0.00181057
0.601704
-0.00225483
0.547774
-0.00264909
0.498752
-0.00300254
0.453903
-0.00330782
0.413275
-0.00357737
0.375939
-0.00378778
0.342371
-0.00396609
0.311152
-0.00406351
0.283634
-0.00417747
0.257269
-0.00415401
0.235099
-0.00416797
0.212597
-0.00388666
0.194496
-0.00316018
0.171557
-0.00141234
0.142205
0.0912634
0.0112919
0.930271
-0.0124256
0.0101427
0.931485
0.00903105
0.932609
0.00793648
0.934124
0.00686216
0.935806
0.00581536
0.937343
0.00479456
0.938904
0.00380838
0.940473
0.00285775
0.942124
0.0019481
0.943838
0.00108277
0.945618
0.000266054
0.947461
-0.000498258
0.949368
-0.00121227
0.960753
-0.0018076
0.875216
-0.00229895
0.797172
-0.00270202
0.726015
-0.00302626
0.661089
-0.0032829
0.601961
-0.00347842
0.54797
-0.0036231
0.498897
-0.0037192
0.453999
-0.00377153
0.413328
-0.00379425
0.375962
-0.00377961
0.342356
-0.00376279
0.311136
-0.00370626
0.283577
-0.00369198
0.257255
-0.0036184
0.235026
-0.00359985
0.212579
-0.0033657
0.194262
-0.00256542
0.170757
-0.00087731
0.140517
0.0903861
0.00950297
0.931509
-0.0107411
0.00825522
0.932733
0.00704746
0.933817
0.00585993
0.935312
0.00469867
0.936967
0.00356856
0.938473
0.00246932
0.940003
0.00140878
0.941534
0.000388045
0.943145
-0.000587221
0.944813
-0.00151302
0.946543
-0.0023843
0.948332
-0.00319427
0.950178
-0.00394346
0.961502
-0.00455383
0.875826
-0.00504396
0.797662
-0.00542408
0.726395
-0.0057093
0.661374
-0.00590729
0.602159
-0.00603001
0.548093
-0.00608317
0.49895
-0.00608126
0.453997
-0.00602112
0.413268
-0.00592702
0.375868
-0.00578269
0.342212
-0.00562089
0.310974
-0.00540113
0.283358
-0.00519157
0.257045
-0.00490738
0.234742
-0.00465581
0.212327
-0.00416397
0.19377
-0.00295988
0.169553
-0.000964381
0.138521
0.0894218
0.00636738
0.932337
-0.00719588
0.00553397
0.933566
0.00474594
0.934605
0.00398157
0.936076
0.00324915
0.937699
0.0025536
0.939168
0.00189423
0.940662
0.00127904
0.942149
0.000708959
0.943715
0.000189989
0.945332
-0.000274055
0.947008
-0.000677986
0.948736
-0.00101614
0.950516
-0.00128509
0.961771
-0.0014604
0.876002
-0.00155844
0.79776
-0.00159458
0.726431
-0.0015839
0.661363
-0.00153863
0.602113
-0.00147546
0.548029
-0.00140202
0.498876
-0.00133546
0.453931
-0.00126974
0.413202
-0.00123129
0.375829
-0.0012
0.342181
-0.00121532
0.310989
-0.00124067
0.283383
-0.00133716
0.257142
-0.00143485
0.234839
-0.00161499
0.212507
-0.00154476
0.193699
-0.000854249
0.168862
0.000331623
0.137335
0.0897534
0.00159618
0.933108
-0.00236738
0.000825944
0.934336
0.000104255
0.935327
-0.000592256
0.936772
-0.0012511
0.938358
-0.00187022
0.939787
-0.00244914
0.941241
-0.00298099
0.942681
-0.00346514
0.944199
-0.00389604
0.945763
-0.00427069
0.947382
-0.00458509
0.94905
-0.00483506
0.950766
-0.00501932
0.961955
-0.00512375
0.876106
-0.0051679
0.797804
-0.00516485
0.726428
-0.0051307
0.661329
-0.00507491
0.602058
-0.00500385
0.547958
-0.00492255
0.498795
-0.00483583
0.453844
-0.00473858
0.413105
-0.00464588
0.375737
-0.00453581
0.342071
-0.00443752
0.310891
-0.00430227
0.283248
-0.00418704
0.257027
-0.00400876
0.234661
-0.00384281
0.212341
-0.00331315
0.19317
-0.00198813
0.167537
-0.000270987
0.135618
0.0894824
-0.00209965
0.933731
0.00147752
-0.00271553
0.934952
-0.00327983
0.935891
-0.00381779
0.93731
-0.00431323
0.938854
-0.00476627
0.94024
-0.00517546
0.94165
-0.005535
0.94304
-0.00584449
0.944508
-0.00609868
0.946017
-0.00629539
0.947579
-0.00643095
0.949186
-0.00650255
0.950837
-0.00650722
0.96196
-0.00645025
0.876049
-0.00634589
0.7977
-0.00620656
0.726289
-0.00603828
0.661161
-0.00584973
0.601869
-0.00564199
0.547751
-0.00542301
0.498576
-0.00519625
0.453617
-0.0049556
0.412864
-0.0047191
0.3755
-0.00446716
0.341819
-0.00423518
0.310659
-0.00398477
0.282997
-0.00378005
0.256822
-0.00355126
0.234432
-0.00336353
0.212154
-0.00281724
0.192624
-0.0014539
0.166174
9.40832e-05
0.13407
0.0895765
-0.00524719
0.934227
0.00475117
-0.00572952
0.935435
-0.00615948
0.936321
-0.00656048
0.937711
-0.0069148
0.939208
-0.0072244
0.94055
-0.00748695
0.941913
-0.00769757
0.943251
-0.00785588
0.944667
-0.00795688
0.946118
-0.0079985
0.947621
-0.00797691
0.949164
-0.00788847
0.950749
-0.00772685
0.961798
-0.007511
0.875833
-0.00725369
0.797443
-0.00696314
0.725998
-0.00665083
0.660849
-0.00632244
0.601541
-0.00598968
0.547418
-0.00565683
0.498243
-0.00533446
0.453295
-0.00501617
0.412546
-0.00472409
0.375208
-0.00443801
0.341533
-0.00419125
0.310412
-0.00394291
0.282749
-0.00374866
0.256628
-0.0035373
0.234221
-0.00335344
0.21197
-0.00272813
0.191998
-0.00126166
0.164708
0.000184077
0.132624
0.0897606
-0.00661617
0.934681
0.00616198
-0.00705013
0.935868
-0.00743107
0.936702
-0.00778104
0.938061
-0.00808094
0.939508
-0.00833431
0.940803
-0.00853786
0.942116
-0.00868763
0.943401
-0.00878306
0.944762
-0.00881905
0.946154
-0.00879358
0.947595
-0.00870221
0.949073
-0.00854163
0.950588
-0.0083048
0.961562
-0.00802115
0.87555
-0.007705
0.797126
-0.00737044
0.725664
-0.00702669
0.660505
-0.00668585
0.6012
-0.00634882
0.547081
-0.00602356
0.497918
-0.00571132
0.452983
-0.00541009
0.412244
-0.0051306
0.374929
-0.00485515
0.341257
-0.0046079
0.310165
-0.00435046
0.282492
-0.00413413
0.256411
-0.00388694
0.233974
-0.00363096
0.211714
-0.00288565
0.191253
-0.00124361
0.163066
0.000186855
0.131194
0.0899474
-0.0122743
0.934957
0.0119986
-0.0125208
0.936115
-0.012716
0.936897
-0.0128778
0.938223
-0.0129863
0.939616
-0.0130458
0.940863
-0.0130528
0.942123
-0.013004
0.943352
-0.012899
0.944657
-0.0127331
0.945988
-0.0125048
0.947367
-0.0122104
0.948778
-0.011848
0.950226
-0.0114093
0.961123
-0.0109448
0.875085
-0.0104647
0.796646
-0.00997765
0.725177
-0.0094875
0.660015
-0.00899924
0.600712
-0.00851242
0.546594
-0.00803214
0.497438
-0.00756442
0.452515
-0.00709793
0.411778
-0.00665081
0.374481
-0.00620187
0.340808
-0.00578021
0.309743
-0.00534923
0.282061
-0.00496373
0.256026
-0.00455738
0.233567
-0.0041503
0.211307
-0.0031889
0.190292
-0.00139359
0.16127
4.49203e-05
0.129755
0.0899923
-0.0165812
0.934903
0.0166347
-0.0164909
0.936025
-0.0163508
0.936757
-0.0161734
0.938046
-0.0159397
0.939383
-0.0156545
0.940578
-0.015314
0.941783
-0.0149158
0.942954
-0.0144598
0.944201
-0.0139412
0.94547
-0.0133592
0.946785
-0.0127097
0.948129
-0.0119909
0.949507
-0.0111904
0.960322
-0.0103941
0.874289
-0.00961059
0.795863
-0.00884813
0.724414
-0.00811229
0.659279
-0.00741148
0.600011
-0.0067483
0.545931
-0.00612674
0.496816
-0.00555681
0.451945
-0.00502842
0.41125
-0.00456487
0.374018
-0.00414324
0.340387
-0.00379441
0.309394
-0.00348145
0.281748
-0.00324817
0.255793
-0.00303662
0.233356
-0.00281904
0.211089
-0.00195879
0.189431
-0.000473485
0.159785
0.000474539
0.128807
0.0904669
-0.0179123
0.935023
0.0177927
-0.0179902
0.936103
-0.0180195
0.936786
-0.0180096
0.938036
-0.0179422
0.939315
-0.0178221
0.940458
-0.0176454
0.941606
-0.0174106
0.942719
-0.0171173
0.943908
-0.0167614
0.945114
-0.0163425
0.946366
-0.0158569
0.947643
-0.0153043
0.948955
-0.0146746
0.959693
-0.0140407
0.873655
-0.0134108
0.795233
-0.0127967
0.7238
-0.0121988
0.658681
-0.0116251
0.599437
-0.0110677
0.545373
-0.0105343
0.496283
-0.0100144
0.451425
-0.00950551
0.410741
-0.00900566
0.373518
-0.00849032
0.339871
-0.00798184
0.308886
-0.00743539
0.281201
-0.00690538
0.255263
-0.00630652
0.232757
-0.00561877
0.210401
-0.0041763
0.187989
-0.0020458
0.157654
-0.000397386
0.127159
0.0900695
-0.0228505
0.934711
0.0231619
-0.0224907
0.935743
-0.0220836
0.936379
-0.0216333
0.937585
-0.0211229
0.938805
-0.020557
0.939892
-0.0199321
0.940981
-0.0192472
0.942034
-0.0185021
0.943163
-0.017693
0.944305
-0.0168198
0.945493
-0.0158792
0.946703
-0.0148712
0.947947
-0.0137817
0.958603
-0.0127277
0.872601
-0.0117149
0.79422
-0.0107478
0.722833
-0.00982753
0.657761
-0.00895839
0.598568
-0.00813601
0.544551
-0.00736365
0.49551
-0.00664089
0.450702
-0.0059663
0.410066
-0.00535286
0.372905
-0.00478589
0.339304
-0.00430011
0.3084
-0.00386103
0.280762
-0.00352613
0.254928
-0.00322032
0.232451
-0.00287438
0.210056
-0.00178905
0.186903
-0.00031754
0.156183
0.000520188
0.126321
0.0905897
-0.0296105
0.934048
0.0302733
-0.0288928
0.935025
-0.0281309
0.935617
-0.0273226
0.936777
-0.0264524
0.937935
-0.0255237
0.938963
-0.0245339
0.939991
-0.0234825
0.940983
-0.0223692
0.942049
-0.0211904
0.943126
-0.0199465