/*--------------------------------*- C++ -*----------------------------------*\
| =========                 |                                                 |
| \\      /  F ield         | OpenFOAM: The Open Source CFD Toolbox           |
|  \\    /   O peration     | Version:  2.3.0                                 |
|   \\  /    A nd           | Web:      www.OpenFOAM.org                      |
|    \\/     M anipulation  |                                                 |
\*---------------------------------------------------------------------------*/
FoamFile
{
    version     2.0;
    format      ascii;
    class       volVectorField;
    location    "397";
    object      U;
}
// * * * * * * * * * * * * * * * * * * * * * * * * * * * * * * * * * * * * * //

dimensions      [0 1 -1 0 0 0 0];

internalField   nonuniform List<vector> 
28552
(
(93.1742 6.94411e-19 0.678597)
(92.9588 -1.02153e-18 0.345721)
(92.7253 -3.63236e-19 0.00613294)
(92.4841 1.20824e-18 -0.339927)
(92.2259 -2.08708e-18 -0.721143)
(91.9518 -4.73834e-20 -1.14371)
(91.6641 1.41267e-18 -1.60932)
(91.3627 -1.422e-18 -2.12478)
(91.0485 1.02425e-18 -2.69875)
(90.723 1.33432e-20 -3.34044)
(90.3894 1.10408e-18 -4.0604)
(90.0525 -5.72479e-19 -4.87187)
(89.7205 5.9919e-19 -5.78887)
(89.4027 -3.26501e-19 -6.83593)
(89.1253 -3.33755e-19 -7.97799)
(88.916 4.05496e-19 -9.14987)
(88.7823 -8.94072e-19 -10.3368)
(88.7271 4.92632e-19 -11.5259)
(88.7503 1.08785e-18 -12.7016)
(88.8483 -5.80187e-19 -13.8552)
(89.0166 0 -14.9606)
(89.2446 -3.1582e-19 -16.0422)
(89.5296 3.79914e-19 -17.0033)
(89.8463 3.29914e-19 -18.0448)
(90.2178 -1.81813e-19 -18.7142)
(90.5475 3.77785e-19 -19.8856)
(91.025 2.30694e-20 -20.024)
(91.2478 2.04535e-19 -21.6373)
(91.9696 -1.40486e-20 -20.7468)
(91.6222 0 -23.6001)
(93.1719 0 -20.3941)
(91.3041 0 -26.5897)
(96.2279 -2.94505e-19 -18.7607)
(79.1581 2.93085e-19 -27.2364)
(93.6122 -9.97363e-19 0.349966)
(93.4077 1.70886e-18 -0.00203575)
(93.1919 -7.05373e-19 -0.348588)
(92.9763 3.78776e-19 -0.696315)
(92.7463 3.80066e-19 -1.08339)
(92.5037 0 -1.51149)
(92.2518 4.64485e-19 -1.98109)
(91.9904 -4.25328e-19 -2.49912)
(91.7199 -4.9679e-19 -3.07336)
(91.4423 5.08586e-19 -3.71194)
(91.1608 -1.59741e-18 -4.42425)
(90.8796 1.67032e-18 -5.22197)
(90.6061 -1.1639e-18 -6.11724)
(90.3497 -5.60328e-19 -7.13233)
(90.1335 6.91239e-19 -8.23233)
(89.9796 3.459e-19 -9.35335)
(89.8927 0 -10.4815)
(89.8746 4.3236e-19 -11.6059)
(89.9244 -4.76851e-19 -12.712)
(90.039 -2.37952e-19 -13.7951)
(90.2135 -2.52339e-19 -14.827)
(90.438 0 -15.8441)
(90.7113 0 -16.7312)
(91.0074 0 -17.7296)
(91.3538 0 -18.3322)
(91.6564 -4.86033e-19 -19.4747)
(92.0881 3.43899e-19 -19.572)
(92.2811 1.61343e-19 -21.1775)
(92.9747 -2.71996e-19 -20.2792)
(92.5748 0 -23.1995)
(94.1445 0 -19.9768)
(92.2033 0 -26.265)
(97.2259 1.7792e-19 -18.9926)
(80.8002 -4.59062e-19 -26.6557)
(94.0638 6.14073e-19 0.0490064)
(93.8802 -2.47548e-20 -0.32172)
(93.6879 3.52266e-19 -0.671426)
(93.4982 1.42666e-18 -1.01807)
(93.296 -1.11513e-18 -1.40796)
(93.0836 -4.15097e-19 -1.83793)
(92.8643 1.22013e-18 -2.30707)
(92.6381 4.29084e-19 -2.8228)
(92.4059 -4.36183e-19 -3.39219)
(92.1697 0 -4.02246)
(91.9328 -4.57692e-19 -4.72206)
(91.7003 -5.04903e-19 -5.50179)
(91.4795 5.13369e-19 -6.37228)
(91.2792 5.58572e-19 -7.35334)
(91.1188 0 -8.41002)
(91.0158 -3.44595e-19 -9.48043)
(90.9732 -3.52706e-19 -10.5514)
(90.9909 8.13524e-21 -11.6139)
(91.0678 6.14484e-19 -12.6538)
(91.1993 4.43583e-19 -13.6704)
(91.3825 6.97303e-19 -14.6321)
(91.6059 -2.512e-19 -15.5893)
(91.8751 0 -16.4044)
(92.1558 0 -17.3597)
(92.4938 2.58704e-19 -17.8974)
(92.7745 -3.46747e-19 -19.0122)
(93.1945 0 -19.0544)
(93.364 -2.03001e-19 -20.6649)
(94.071 1.62091e-19 -19.7086)
(93.6693 -1.44015e-20 -22.6811)
(95.3212 2.16823e-20 -19.4262)
(93.4173 1.32923e-19 -25.5878)
(98.609 1.18806e-20 -18.7735)
(82.7235 -8.61003e-20 -25.8861)
(94.5398 1.38235e-19 -0.20514)
(94.3818 -1.71814e-19 -0.600357)
(94.2172 0 -0.952238)
(94.0541 4.8137e-19 -1.29832)
(93.8803 -6.7825e-19 -1.69022)
(93.6987 1.5846e-19 -2.11994)
(93.5123 -3.68321e-19 -2.58662)
(93.3216 5.78125e-19 -3.09812)
(93.1278 -2.07516e-19 -3.66055)
(92.933 0 -4.28032)
(92.7406 6.65905e-19 -4.96505)
(92.5547 6.67393e-19 -5.72418)
(92.3825 -8.62024e-21 -6.56694)
(92.2324 -2.34955e-19 -7.51115)
(92.1203 2.45375e-19 -8.5222)
(92.0598 0 -9.5407)
(92.0531 2.91742e-19 -10.5545)
(92.1 0 -11.5562)
(92.1988 -5.47648e-19 -12.5321)
(92.3455 1.83081e-19 -13.4854)
(92.5368 -2.18079e-19 -14.3796)
(92.7619 -2.02469e-19 -15.2799)
(93.0278 3.22025e-19 -16.0253)
(93.3008 -2.11981e-19 -16.9342)
(93.6277 4.97904e-19 -17.4049)
(93.907 -1.72686e-19 -18.4796)
(94.3135 0 -18.446)
(94.4955 -6.15448e-20 -20.0339)
(95.2163 -1.9224e-19 -18.9402)
(94.8202 2.40669e-19 -21.9471)
(96.5677 5.83159e-20 -18.475)
(94.6577 -8.09032e-20 -24.4241)
(99.7515 -1.18786e-20 -17.7016)
(83.8064 2.91974e-20 -24.6937)
(95.0286 -2.64185e-19 -0.406185)
(94.8922 -1.35636e-20 -0.821867)
(94.7544 -1.37152e-19 -1.17204)
(94.6145 -2.99379e-19 -1.51582)
(94.4656 -1.4747e-19 -1.90718)
(94.3124 -3.23226e-19 -2.33399)
(94.1565 -1.587e-19 -2.79574)
(93.9981 -1.93627e-20 -3.30046)
(93.8389 1.73827e-19 -3.85338)
(93.6813 -5.45648e-19 -4.46018)
(93.5284 -2.04671e-19 -5.12775)
(93.3846 -2.11142e-19 -5.86456)
(93.2568 -4.07457e-19 -6.67864)
(93.1533 1.91922e-19 -7.58594)
(93.087 -6.77962e-19 -8.55217)
(93.0678 1.18417e-19 -9.52033)
(93.097 2.43945e-19 -10.479)
(93.1732 -9.59273e-21 -11.4226)
(93.2945 -1.29872e-20 -12.3369)
(93.4562 -3.26268e-19 -13.2301)
(93.657 7.55618e-20 -14.0591)
(93.884 0 -14.9047)
(94.1506 -9.74128e-20 -15.5813)
(94.4148 -1.67866e-19 -16.4448)
(94.7381 -3.11908e-20 -16.8431)
(94.9968 1.82927e-19 -17.8871)
(95.3993 1.56168e-19 -17.765)
(95.5297 -1.72027e-19 -19.3613)
(96.2562 1.35359e-19 -18.141)
(95.7691 -1.49671e-19 -21.2046)
(97.4722 2.04139e-20 -17.683)
(95.4726 -7.09261e-21 -23.5411)
(100.391 0 -16.9739)
(84.5384 3.48295e-21 -23.6238)
(95.5201 1.84741e-19 -0.554978)
(95.4029 -7.38951e-20 -0.993086)
(95.2953 2.01162e-19 -1.33829)
(95.1818 -1.31458e-19 -1.67976)
(95.0592 7.7882e-19 -2.06935)
(94.9348 2.29464e-19 -2.49159)
(94.8096 -1.38302e-19 -2.94683)
(94.6838 -4.79968e-19 -3.44309)
(94.5595 6.42407e-19 -3.98466)
(94.439 -4.07521e-19 -4.57665)
(94.3255 3.37452e-19 -5.2252)
(94.223 0 -5.93777)
(94.1378 1.90359e-19 -6.72133)
(94.078 -1.91468e-19 -7.59015)
(94.0533 2.99386e-19 -8.51049)
(94.0703 -3.21083e-19 -9.42804)
(94.1295 7.39595e-21 -10.3322)
(94.2298 4.76834e-19 -11.219)
(94.369 -3.14123e-19 -12.0737)
(94.5426 -5.87552e-20 -12.9091)
(94.7494 -7.52893e-20 -13.6756)
(94.9764 1.00408e-19 -14.4695)
(95.2367 -2.74154e-19 -15.083)
(95.4911 1.72777e-19 -15.9045)
(95.7919 -1.23888e-19 -16.2439)
(96.0396 2.41641e-19 -17.2576)
(96.3966 -1.30312e-19 -17.0759)
(96.5136 0 -18.6667)
(97.2007 0 -17.3647)
(96.6921 6.93517e-20 -20.4379)
(98.3585 -1.19718e-19 -16.8659)
(96.3489 5.2299e-20 -22.6039)
(101.189 0 -16.1645)
(85.3887 2.23599e-21 -22.5983)
(96.0153 -5.75597e-20 -0.656486)
(95.9177 3.73121e-19 -1.11568)
(95.8344 -5.2743e-19 -1.45133)
(95.7437 -2.83243e-20 -1.78859)
(95.6449 -3.73837e-20 -2.17418)
(95.5466 -9.87707e-20 -2.58968)
(95.4494 -3.08746e-20 -3.03658)
(95.3532 0 -3.52255)
(95.2604 -3.2474e-20 -4.05105)
(95.1733 -1.10357e-19 -4.62668)
(95.0948 -3.37916e-20 -5.25495)
(95.0291 -2.97445e-19 -5.94241)
(94.9822 4.16082e-19 -6.69508)
(94.9618 -2.04572e-21 -7.52569)
(94.9753 -4.11478e-19 -8.4011)
(95.0262 3.06687e-19 -9.26962)
(95.1143 -3.4625e-19 -10.1212)
(95.2376 1.97791e-19 -10.9538)
(95.3939 3.42262e-20 -11.7513)
(95.578 -1.38071e-19 -12.5325)
(95.791 2.16333e-19 -13.2392)
(96.0174 -1.53492e-19 -13.9848)
(96.2763 2.24812e-19 -14.5361)
(96.5213 -2.41266e-20 -15.3199)
(96.819 8.19501e-20 -15.591)
(97.0458 -7.73111e-20 -16.5898)
(97.4103 3.19733e-21 -16.3137)
(97.4715 -4.82971e-20 -17.9403)
(98.1965 5.37249e-20 -16.5079)
(97.6041 0 -19.6436)
(99.2909 -2.63855e-21 -16.0021)
(97.2322 -3.83956e-20 -21.6695)
(101.953 3.95681e-20 -15.3771)
(86.2326 -2.22292e-21 -21.6086)
(96.4976 -5.82867e-19 -0.720447)
(96.4232 2.11353e-20 -1.18696)
(96.3684 2.05243e-19 -1.51396)
(96.3034 3.15907e-20 -1.84561)
(96.2298 -2.93402e-20 -2.22559)
(96.1581 3.01628e-20 -2.63269)
(96.0892 3.42742e-20 -3.06957)
(96.023 -2.3585e-19 -3.54341)
(95.962 2.69492e-20 -4.05688)
(95.9083 3.53642e-20 -4.61418)
(95.865 3.35671e-20 -5.22014)
(95.8358 2.52769e-19 -5.88047)
(95.8261 -8.91792e-20 -6.60035)
(95.8434 1.23653e-19 -7.39112)
(95.8921 3.65616e-21 -8.22049)
(95.9731 4.28014e-20 -9.03969)
(96.0858 -1.65625e-20 -9.83913)
(96.2285 -1.45228e-19 -10.6184)
(96.399 1.79741e-19 -11.3601)
(96.5924 1.98963e-21 -12.0883)
(96.8101 1.36399e-19 -12.7371)
(97.0368 -1.62319e-19 -13.4353)
(97.2904 -1.04994e-20 -13.9284)
(97.5301 -4.85841e-21 -14.6743)
(97.8089 0 -14.8913)
(98.0335 0 -15.8649)
(98.3573 1.19251e-20 -15.5422)
(98.4237 -1.65027e-20 -17.1556)
(99.1095 -6.54875e-22 -15.7005)
(98.5353 0 -18.799)
(100.153 0 -15.239)
(98.146 1.02696e-19 -20.7683)
(102.781 -2.34868e-19 -14.7615)
(87.3143 1.66091e-19 -20.6763)
(96.9801 -1.73405e-19 -0.734745)
(96.9168 -4.73599e-21 -1.20812)
(96.8854 1.78176e-19 -1.52791)
(96.845 -3.10211e-21 -1.85342)
(96.7946 1.88228e-19 -2.22689)
(96.747 -2.11688e-19 -2.6245)
(96.7035 -3.32012e-21 -3.05026)
(96.6642 0 -3.51085)
(96.6315 2.60911e-20 -4.00831)
(96.6075 -3.48832e-21 -4.5465)
(96.5952 2.01836e-19 -5.12965)
(96.5982 -1.84674e-19 -5.76273)
(96.6218 0 -6.45008)
(96.673 0 -7.20179)
(96.7543 -3.64565e-21 -7.98637)
(96.8639 -1.05521e-19 -8.75785)
(97.0006 1.08099e-19 -9.50693)
(97.162 2.01724e-21 -10.2353)
(97.3463 -9.87996e-20 -10.9236)
(97.5474 9.70787e-20 -11.6021)
(97.7693 1.90822e-21 -12.195)
(97.9945 -8.83068e-22 -12.8488)
(98.2456 -5.50624e-20 -13.2825)
(98.4781 9.56547e-20 -13.9928)
(98.7552 -4.7547e-20 -14.1397)
(98.9659 3.02414e-20 -15.0975)
(99.3037 -2.00244e-20 -14.6729)
(99.3271 -1.42056e-22 -16.3126)
(100.066 -2.55394e-21 -14.7196)
(99.4374 -1.03888e-19 -17.8527)
(101.121 1.17289e-19 -14.182)
(99.1018 0 -19.5864)
(103.685 0 -13.7342)
(88.2911 -4.76432e-22 -19.557)
(97.4426 3.22314e-19 -0.705225)
(97.3995 -1.11809e-19 -1.18744)
(97.3921 3.42975e-20 -1.49315)
(97.3756 0 -1.81275)
(97.3489 1.91136e-19 -2.17799)
(97.3257 -1.00015e-19 -2.56427)
(97.3079 3.56849e-20 -2.97725)
(97.296 -1.2442e-19 -3.42275)
(97.292 1.74709e-19 -3.90229)
(97.2982 3.54499e-20 -4.41941)
(97.3172 3.48945e-20 -4.97778)
(97.3525 1.15365e-20 -5.58168)
(97.4086 0 -6.23483)
(97.4924 0 -6.94622)
(97.6037 0 -7.68547)
(97.7384 0 -8.40968)
(97.8954 -6.70777e-20 -9.1097)
(98.0724 7.39023e-20 -9.78911)
(98.2675 -5.50769e-20 -10.4261)
(98.4754 7.82586e-20 -11.0572)
(98.6996 0 -11.597)
(98.9236 0 -12.2083)
(99.1676 0 -12.587)
(99.3929 -3.02123e-20 -13.262)
(99.6497 9.8574e-20 -13.3521)
(99.8515 -5.94313e-20 -14.2821)
(100.152 -2.31107e-21 -13.8021)
(100.179 0 -15.4032)
(100.857 2.39883e-19 -13.7878)
(100.269 -2.6436e-19 -16.8038)
(101.819 -4.39595e-21 -13.2708)
(99.9207 0 -18.3297)
(104.278 -8.13107e-21 -12.7225)
(88.8374 -7.20916e-19 -18.4143)
(97.8908 9.00121e-20 -0.639772)
(97.8641 -3.43892e-20 -1.13726)
(97.8785 9.01661e-20 -1.42147)
(97.8821 -2.51543e-19 -1.73561)
(97.8768 9.10749e-20 -2.09122)
(97.8758 9.07216e-20 -2.4648)
(97.8809 -1.08041e-19 -2.8642)
(97.8934 -3.6083e-20 -3.29385)
(97.915 -1.59389e-19 -3.75484)
(97.9477 8.86573e-20 -4.25049)
(97.9945 8.14246e-20 -4.78385)
(98.0584 -1.51411e-19 -5.35862)
(98.1439 0 -5.97777)
(98.2576 0 -6.6493)
(98.3975 7.87749e-20 -7.34381)
(98.5572 -3.28639e-20 -8.02147)
(98.7353 0 -8.67326)
(98.9285 0 -9.30552)
(99.1352 1.3893e-20 -9.89349)
(99.3489 -2.3148e-20 -10.4818)
(99.5746 -1.75598e-20 -10.9731)
(99.7941 1.93521e-20 -11.5498)
(100.03 0 -11.8791)
(100.242 9.20041e-20 -12.5315)
(100.486 1.99251e-20 -12.562)
(100.663 -1.46436e-19 -13.4914)
(100.956 0 -12.9198)
(100.917 0 -14.5704)
(101.613 2.04798e-20 -12.8101)
(100.916 -3.75746e-19 -15.9049)
(102.49 8.45852e-19 -12.2042)
(100.468 -4.9615e-19 -17.4099)
(104.658 6.07441e-19 -11.3609)
(89.0254 -7.69316e-19 -17.4275)
(98.3195 -9.5238e-20 -0.539839)
(98.3108 -4.42317e-20 -1.04555)
(98.3449 9.77045e-20 -1.30863)
(98.37 4.17453e-20 -1.61555)
(98.3873 -5.41178e-20 -1.95896)
(98.4087 2.30048e-19 -2.31789)
(98.437 -1.49284e-19 -2.70157)
(98.474 3.76535e-20 -3.11299)
(98.5214 0 -3.553)
(98.5811 3.33824e-20 -4.02463)
(98.6555 0 -4.53045)
(98.7477 0 -5.07353)
(98.8616 0 -5.65646)
(99.0034 2.2929e-20 -6.28628)
(99.1687 -5.97595e-20 -6.93503)
(99.3499 -1.49009e-20 -7.56617)
(99.5452 0 -8.17057)
(99.7521 -1.04316e-20 -8.75687)
(99.9691 2.91127e-20 -9.29754)
(100.19 -2.90293e-20 -9.84444)
(100.42 4.67863e-20 -10.2903)
(100.642 0 -10.8357)
(100.875 0 -11.1246)
(101.084 0 -11.7644)
(101.312 1.84604e-19 -11.7664)
(101.476 -2.03364e-19 -12.7084)
(101.748 0 -12.1378)
(101.698 -3.42102e-19 -13.8029)
(102.355 7.02342e-19 -12.1364)
(101.677 -3.84131e-19 -15.1926)
(103.153 0 -11.7541)
(101.197 0 -16.8433)
(105.311 -6.3078e-19 -11.4072)
(90.0358 -1.52514e-20 -16.6653)
(98.7237 7.60464e-20 -0.410753)
(98.7307 4.33006e-20 -0.923878)
(98.7827 0 -1.16443)
(98.8278 -7.12168e-20 -1.46374)
(98.866 -4.15155e-20 -1.7938)
(98.9079 -4.05876e-20 -2.13728)
(98.9571 6.11945e-20 -2.50458)
(99.0161 -9.94244e-20 -2.89711)
(99.0865 0 -3.31564)
(99.17 -3.35456e-20 -3.76293)
(99.2691 0 -4.24092)
(99.3866 0 -4.75224)
(99.5264 0 -5.29867)
(99.6943 0 -5.88645)
(99.8847 1.8213e-20 -6.48858)
(100.088 -2.24043e-20 -7.07194)
(100.302 1.75032e-20 -7.62716)
(100.525 1.74812e-20 -8.16618)
(100.754 -6.55789e-20 -8.65794)
(100.984 3.3232e-20 -9.16308)
(101.221 -1.08624e-19 -9.56255)
(101.447 8.18728e-20 -10.0751)
(101.682 -4.64238e-20 -10.3211)
(101.899 5.70037e-20 -10.9361)
(102.131 0 -10.894)
(102.315 0 -11.8135)
(102.601 -3.67022e-19 -11.1956)
(102.578 -5.05251e-21 -12.8234)
(103.26 9.53331e-19 -11.1272)
(102.661 -6.02013e-19 -14.0605)
(104.136 0 -10.6406)
(102.35 8.07757e-19 -15.3983)
(106.542 -1.82484e-18 -10.3303)
(91.0373 2.42194e-18 -15.3435)
(99.1042 -5.47519e-20 -0.256503)
(99.1293 -4.07759e-20 -0.774565)
(99.1981 3.69369e-20 -0.990669)
(99.2625 2.9279e-20 -1.28176)
(99.3219 0 -1.59654)
(99.3844 -2.55767e-20 -1.92305)
(99.4545 0 -2.27229)
(99.5355 1.46773e-20 -2.64411)
(99.6288 7.90924e-21 -3.03935)
(99.7359 -5.71015e-21 -3.46041)
(99.8591 5.74046e-21 -3.90888)
(100.001 0 -4.38682)
(100.165 0 -4.89582)
(100.356 0 -5.44121)
(100.568 -1.23174e-20 -5.99762)
(100.788 0 -6.53502)
(101.016 0 -7.04307)
(101.249 2.60485e-20 -7.53571)
(101.487 0 -7.97715)
(101.725 -4.69833e-20 -8.43447)
(101.968 0 -8.77571)
(102.203 -1.47336e-19 -9.23715)
(102.447 2.50762e-19 -9.41012)
(102.672 -5.73064e-20 -9.97444)
(102.914 0 -9.83801)
(103.097 0 -10.7147)
(103.391 5.57338e-20 -9.97972)
(103.353 0 -11.5756)
(104.043 -5.62981e-19 -9.73643)
(103.405 6.22101e-19 -12.6631)
(104.883 7.35944e-19 -9.11975)
(103.033 -9.15382e-19 -13.7709)
(106.781 -9.69303e-19 -8.51479)
(90.7151 -3.32548e-20 -14.0089)
(99.4601 0 -0.0810006)
(99.4997 6.04406e-20 -0.599534)
(99.5842 -3.6921e-20 -0.791362)
(99.6667 -1.9402e-20 -1.0734)
(99.7456 2.50912e-20 -1.37171)
(99.8269 2.54929e-20 -1.68048)
(99.9159 -6.23449e-21 -2.01081)
(100.017 -2.79043e-20 -2.36106)
(100.13 -7.86095e-21 -2.73224)
(100.258 -5.12209e-20 -3.12644)
(100.403 2.09024e-20 -3.5446)
(100.567 0 -3.98852)
(100.753 2.86144e-20 -4.45887)
(100.967 1.59534e-20 -4.96047)
(101.199 3.997e-20 -5.46875)
(101.438 6.89585e-20 -5.9575)
(101.681 8.16308e-20 -6.41583)
(101.926 -1.91889e-19 -6.86171)
(102.172 1.123e-19 -7.25533)
(102.411 -7.24739e-20 -7.67457)
(102.651 1.68265e-19 -7.97497)
(102.875 1.61431e-19 -8.4155)
(103.099 -3.08137e-19 -8.55991)
(103.303 -3.02221e-19 -9.12266)
(103.509 4.24019e-19 -8.97493)
(103.665 0 -9.86511)
(103.924 4.11988e-19 -9.14365)
(103.853 -5.86852e-19 -10.7564)
(104.488 0 -8.99269)
(103.841 8.85574e-20 -11.8862)
(105.222 4.66349e-20 -8.56342)
(103.46 5.54412e-20 -13.1141)
(107.041 9.50457e-19 -8.12885)
(90.3898 -1.24934e-18 -13.0238)
(99.7894 0 0.1115)
(99.8486 -1.97042e-20 -0.397727)
(99.9448 0 -0.567312)
(100.046 -3.51436e-21 -0.838028)
(100.144 -2.10274e-21 -1.11775)
(100.244 0 -1.40696)
(100.352 6.23893e-21 -1.71608)
(100.472 -2.31745e-21 -2.04237)
(100.606 1.56811e-20 -2.38703)
(100.755 1.14476e-19 -2.75169)
(100.92 -9.56994e-20 -3.13707)
(101.105 0 -3.54446)
(101.311 -5.24213e-20 -3.97462)
(101.544 -1.25709e-19 -4.43165)
(101.793 0 -4.89336)
(102.045 1.64929e-20 -5.33739)
(102.297 -1.99028e-19 -5.75226)
(102.547 -1.26153e-20 -6.15899)
(102.796 1.41157e-19 -6.5138)
(103.039 1.57171e-20 -6.901)
(103.279 -1.13768e-19 -7.16553)
(103.51 5.74259e-20 -7.57933)
(103.737 -2.34996e-19 -7.68866)
(103.952 3.33349e-19 -8.23247)
(104.162 -9.18723e-20 -8.05219)
(104.325 -4.69245e-19 -8.92726)
(104.595 1.05451e-18 -8.1855)
(104.537 -5.25918e-19 -9.76634)
(105.177 0 -8.00381)
(104.575 6.36267e-21 -10.8066)
(105.943 -9.06984e-19 -7.52746)
(104.232 1.02574e-18 -11.9019)
(107.73 -7.30705e-20 -7.17492)
(90.2909 0 -11.7015)
(100.093 -5.85809e-21 0.319815)
(100.167 4.53248e-21 -0.18338)
(100.276 9.49257e-21 -0.327354)
(100.392 -4.09974e-20 -0.587519)
(100.508 0 -0.847768)
(100.625 0 -1.11728)
(100.749 -5.46202e-20 -1.40515)
(100.886 -2.85975e-20 -1.70753)
(101.038 2.86891e-20 -2.02595)
(101.204 -5.91004e-20 -2.36163)
(101.387 1.16601e-19 -2.7147)
(101.589 -1.58411e-19 -3.08633)
(101.813 9.82603e-20 -3.47608)
(102.063 1.44094e-19 -3.88769)
(102.328 8.64357e-20 -4.29902)
(102.594 1.38733e-20 -4.69128)
(102.86 1.28485e-19 -5.05113)
(103.123 -1.41346e-19 -5.40298)
(103.384 -9.01302e-20 -5.69676)
(103.637 1.05579e-19 -6.02811)
(103.887 -1.52948e-20 -6.22625)
(104.127 0 -6.58679)
(104.362 -3.4833e-19 -6.62332)
(104.584 3.84018e-19 -7.11862)
(104.804 0 -6.85045)
(104.971 6.03053e-19 -7.68706)
(105.256 -5.88684e-19 -6.83813)
(105.197 -7.02422e-19 -8.39048)
(105.846 7.68113e-19 -6.52249)
(105.247 9.15688e-19 -9.27495)
(106.595 2.6134e-20 -5.98188)
(104.937 -1.12767e-18 -10.1222)
(107.76 -1.2374e-18 -5.48598)
(89.3452 1.68456e-18 -10.2047)
(100.373 0 0.540442)
(100.463 0 0.051591)
(100.582 1.90052e-20 -0.0684068)
(100.714 -6.01592e-20 -0.315331)
(100.847 -9.0625e-21 -0.553655)
(100.981 -2.64193e-20 -0.801351)
(101.121 -2.14135e-20 -1.06515)
(101.275 -8.60017e-20 -1.34076)
(101.443 -4.60272e-20 -1.62989)
(101.627 -1.15465e-19 -1.93321)
(101.827 1.11442e-19 -2.25079)
(102.046 -1.87135e-20 -2.58319)
(102.285 8.17085e-21 -2.93027)
(102.549 -2.17342e-19 -3.29479)
(102.825 0 -3.65742)
(103.099 1.69389e-20 -4.00325)
(103.367 0 -4.31812)
(103.629 0 -4.63087)
(103.885 -9.25505e-20 -4.88653)
(104.131 -1.21225e-19 -5.18767)
(104.369 2.68675e-19 -5.35443)
(104.596 -3.21064e-19 -5.69732)
(104.815 3.53114e-19 -5.70894)
(105.027 4.24247e-19 -6.19359)
(105.227 -4.66679e-19 -5.91701)
(105.379 -6.6146e-20 -6.75246)
(105.645 -6.26151e-19 -5.91778)
(105.572 -1.81087e-20 -7.47061)
(106.191 7.7963e-19 -5.65216)
(105.591 -5.6001e-20 -8.38331)
(106.904 -2.01922e-18 -5.2073)
(105.268 4.58319e-18 -9.24589)
(107.572 -4.79473e-18 -4.8901)
(88.0486 6.50034e-18 -8.94886)
(100.628 -2.10911e-20 0.769029)
(100.732 7.23276e-20 0.299172)
(100.859 3.20222e-20 0.20227)
(101.006 1.45641e-19 -0.0306945)
(101.154 -1.78524e-20 -0.246682)
(101.301 4.07881e-20 -0.47276)
(101.456 1.3114e-19 -0.712795)
(101.623 1.38062e-19 -0.962218)
(101.805 -5.16508e-20 -1.22304)
(102.002 2.42147e-19 -1.49555)
(102.215 -2.17941e-19 -1.77944)
(102.447 2.10302e-19 -2.07545)
(102.698 1.78971e-19 -2.38237)
(102.972 0 -2.7035)
(103.256 1.17006e-19 -3.01933)
(103.535 -3.95398e-19 -3.31925)
(103.808 0 -3.58651)
(104.072 0 -3.85298)
(104.328 -2.28019e-19 -4.05762)
(104.572 3.74281e-19 -4.31394)
(104.808 -1.43236e-19 -4.42408)
(105.032 0 -4.72117)
(105.242 -1.02059e-19 -4.66948)
(105.443 -3.48699e-19 -5.12006)
(105.635 -1.82433e-20 -4.75493)
(105.772 1.2676e-18 -5.56888)
(106.032 -1.42899e-18 -4.61649)
(105.945 7.49926e-19 -6.13506)
(106.549 -1.05636e-19 -4.22295)
(105.956 0 -6.8173)
(107.184 1.0638e-18 -3.68601)
(105.632 -1.18409e-18 -7.39565)
(107.034 0 -3.12611)
(86.2813 0 -7.46297)
(100.858 2.84075e-20 1.0059)
(100.974 -7.99087e-20 0.554999)
(101.109 -1.34932e-19 0.482127)
(101.267 -2.75249e-20 0.263207)
(101.428 -1.12693e-20 0.0707942)
(101.587 -1.47017e-19 -0.133254)
(101.754 -2.08673e-19 -0.348533)
(101.933 0 -0.571031)
(102.126 6.75224e-20 -0.802748)
(102.335 -1.24764e-19 -1.04351)
(102.559 7.10929e-20 -1.29308)
(102.801 9.00396e-20 -1.55162)
(103.061 -2.67781e-19 -1.81843)
(103.343 0 -2.09575)
(103.633 0 -2.3671)
(103.915 -1.23618e-20 -2.62533)
(104.187 -1.77761e-19 -2.85281)
(104.448 0 -3.08719)
(104.699 0 -3.26049)
(104.936 1.39028e-19 -3.49694)
(105.16 -3.17202e-19 -3.58778)
(105.373 3.48519e-19 -3.88373)
(105.571 -4.17675e-19 -3.82355)
(105.763 8.08091e-19 -4.28429)
(105.941 -5.13477e-19 -3.93671)
(106.068 -7.26596e-20 -4.77721)
(106.313 7.49561e-19 -3.88058)
(106.221 -8.36874e-19 -5.43)
(106.777 -6.25862e-19 -3.63936)
(106.219 9.35005e-19 -6.23346)
(107.404 0 -3.36181)
(105.904 1.10167e-18 -6.93506)
(106.765 -1.25438e-18 -3.14002)
(84.9538 0 -6.47053)
(101.065 -7.33101e-20 1.24735)
(101.192 0 0.818459)
(101.33 -1.31658e-20 0.767162)
(101.498 0 0.562324)
(101.669 9.28682e-20 0.392368)
(101.838 1.02967e-19 0.209137)
(102.014 1.13835e-19 0.0169657)
(102.201 -7.01287e-20 -0.180589)
(102.403 7.02631e-20 -0.385729)
(102.619 0 -0.597984)
(102.85 0 -0.816919)
(103.098 0 -1.04317)
(103.363 0 -1.27506)
(103.648 0 -1.51629)
(103.94 -7.00282e-20 -1.74975)
(104.223 1.48169e-19 -1.97339)
(104.495 2.7156e-19 -2.1661)
(104.755 1.12379e-19 -2.36847)
(105.004 -2.53547e-19 -2.50765)
(105.241 -1.42554e-19 -2.71457)
(105.465 0 -2.76588)
(105.681 -2.96308e-19 -3.02957)
(105.878 4.38498e-19 -2.92268)
(106.075 8.15778e-21 -3.35272)
(106.257 -2.80746e-19 -2.93896)
(106.394 0 -3.7267)
(106.644 0 -2.76825)
(106.579 2.00438e-19 -4.18623)
(107.22 -1.08401e-19 -2.4097)
(106.63 0 -4.71028)
(107.822 0 -1.95273)
(106.339 7.57957e-20 -5.1037)
(106.185 0 -1.60686)
(83.4383 -9.29703e-19 -5.07844)
(101.25 1.58135e-19 1.49332)
(101.384 -9.02603e-20 1.08485)
(101.525 1.13689e-19 1.05537)
(101.7 -2.48826e-20 0.862885)
(101.88 0 0.715559)
(102.056 3.26354e-20 0.551698)
(102.238 2.94278e-21 0.382001)
(102.432 -2.29482e-19 0.208238)
(102.639 -1.29475e-19 0.028535)
(102.861 -1.82593e-19 -0.156274)
(103.097 0 -0.345908)
(103.349 -2.14113e-19 -0.540352)
(103.616 0 -0.738343)
(103.904 -2.47868e-19 -0.942113)
(104.197 0 -1.13675)
(104.479 0 -1.3221)
(104.748 1.01137e-19 -1.47531)
(105.005 -2.28276e-19 -1.64305)
(105.25 2.57479e-19 -1.74165)
(105.481 1.54902e-19 -1.91938)
(105.697 -5.22893e-19 -1.93296)
(105.903 3.92291e-19 -2.17831)
(106.087 4.52936e-19 -2.03287)
(106.267 -2.51886e-19 -2.45955)
(106.43 2.92073e-19 -2.01266)
(106.543 8.90516e-20 -2.8145)
(106.766 -4.52916e-19 -1.84109)
(106.68 -1.03014e-19 -3.28542)
(107.208 0 -1.52172)
(106.686 5.19297e-19 -3.81514)
(107.728 -5.5987e-19 -1.21628)
(106.26 -5.5283e-19 -4.2086)
(105.252 6.77528e-19 -0.968134)
(81.3889 8.38213e-19 -4.07327)
(101.412 -6.15903e-20 1.74175)
(101.553 6.74042e-20 1.35555)
(101.696 5.55985e-20 1.34584)
(101.877 -6.02186e-20 1.16677)
(102.062 0 1.04087)
(102.245 -7.11183e-20 0.896028)
(102.431 -3.87876e-20 0.747809)
(102.629 1.52011e-19 0.596721)
(102.84 1.65062e-19 0.441001)
(103.064 1.30931e-19 0.281683)
(103.302 0 0.119188)
(103.555 1.01031e-19 -0.0469976)
(103.823 0 -0.214587)
(104.108 -1.14519e-20 -0.387813)
(104.397 0 -0.550624)
(104.674 0 -0.709255)
(104.937 1.04378e-19 -0.83665)
(105.187 4.45845e-21 -0.984527)
(105.422 0 -1.06554)
(105.646 0 -1.23302)
(105.854 3.54017e-19 -1.23255)
(106.055 -1.95323e-19 -1.47902)
(106.233 -1.12541e-19 -1.32631)
(106.41 0 -1.7678)
(106.571 0 -1.31805)
(106.684 1.66574e-21 -2.14867)
(106.908 9.06653e-20 -1.17341)
(106.825 -4.14073e-19 -2.65498)
(107.355 4.53371e-19 -0.899578)
(106.842 6.61247e-20 -3.20988)
(107.961 0 -0.661568)
(106.453 -7.84362e-20 -3.59002)
(104.709 0 -0.575172)
(79.9892 6.08601e-20 -3.28339)
(101.553 0 1.99055)
(101.699 -1.3805e-20 1.62613)
(101.842 -8.6648e-20 1.63559)
(102.027 4.51439e-20 1.4677)
(102.217 0 1.36327)
(102.403 7.12291e-20 1.23542)
(102.593 0 1.10772)
(102.793 2.24004e-20 0.977652)
(103.005 -1.17704e-19 0.844263)
(103.231 9.7633e-20 0.708652)
(103.469 -1.1019e-19 0.570988)
(103.721 1.13499e-19 0.431173)
(103.987 -1.26956e-19 0.290838)
(104.27 2.60476e-19 0.146813)
(104.555 -1.58233e-19 0.0129629)
(104.827 0 -0.117942)
(105.085 2.71668e-20 -0.217089)
(105.33 -1.81944e-19 -0.340442)
(105.56 -7.15045e-20 -0.388452)
(105.779 -3.95997e-20 -0.53313)
(105.981 0 -0.492856)
(106.178 -1.56094e-19 -0.715994)
(106.352 -5.97521e-20 -0.507618)
(106.526 0 -0.917343)
(106.685 1.34428e-21 -0.400703)
(106.797 -1.6522e-19 -1.17197)
(107.027 4.72737e-20 -0.145649)
(106.937 -5.20035e-20 -1.50093)
(107.434 -5.88888e-20 0.235667)
(106.951 8.33908e-22 -1.8271)
(107.937 7.02855e-20 0.573921)
(106.4 -7.86294e-20 -1.90906)
(103.692 0 0.719068)
(78.13 1.32061e-19 -2.16007)
(101.673 -1.36764e-20 2.23654)
(101.824 1.36944e-20 1.90176)
(101.964 7.59466e-20 1.92347)
(102.153 1.2703e-21 1.77011)
(102.345 5.65365e-20 1.68442)
(102.534 0 1.57324)
(102.725 8.56007e-20 1.46467)
(102.926 0 1.35422)
(103.139 9.47749e-20 1.24153)
(103.364 7.88532e-20 1.12769)
(103.601 2.78644e-19 1.01304)
(103.851 -2.89114e-20 0.897002)
(104.114 2.72081e-19 0.782535)
(104.393 -3.39498e-20 0.664485)
(104.673 1.75894e-19 0.559214)
(104.939 1.86134e-19 0.452846)
(105.191 0 0.380382)
(105.428 0 0.277471)
(105.649 1.39499e-19 0.251923)
(105.859 -4.08434e-20 0.12149)
(106.049 4.4873e-20 0.177213)
(106.233 0 -0.043015)
(106.391 5.72501e-20 0.168872)
(106.547 9.81718e-20 -0.250043)
(106.687 3.7371e-20 0.250646)
(106.779 -8.30796e-20 -0.543599)
(106.972 0 0.445001)
(106.883 -1.04115e-19 -0.939809)
(107.34 -5.76569e-20 0.715746)
(106.854 1.28807e-19 -1.35336)
(107.806 -2.12789e-19 0.875957)
(106.209 7.99683e-20 -1.57255)
(102.682 -4.40761e-20 0.894106)
(76.2844 -3.04859e-22 -1.59583)
(101.773 -6.47227e-20 2.48365)
(101.927 -3.94259e-21 2.17184)
(102.065 -6.32915e-20 2.20899)
(102.255 4.58868e-21 2.06749)
(102.45 -1.56664e-19 2.00104)
(102.64 -2.65292e-21 1.90533)
(102.832 -8.06657e-20 1.81551)
(103.032 -9.85336e-20 1.7238)
(103.244 0 1.63109)
(103.467 -2.15754e-19 1.53826)
(103.702 -1.13848e-19 1.44555)
(103.949 -1.24549e-19 1.35269)
(104.207 -2.62789e-19 1.26196)
(104.481 1.39988e-19 1.16893)
(104.754 1.57944e-19 1.08735)
(105.013 -1.81e-19 1.0021)
(105.257 1.38902e-20 0.94867)
(105.488 -3.11679e-20 0.85875)
(105.703 1.60419e-19 0.848088)
(105.908 0 0.72029)
(106.095 -2.33886e-20 0.791038)
(106.277 5.21451e-20 0.564436)
(106.436 7.34936e-22 0.792736)
(106.595 -3.27834e-20 0.354411)
(106.739 7.51885e-20 0.878944)
(106.837 -1.68184e-19 0.0573973)
(107.063 9.26938e-20 1.07224)
(106.964 2.10195e-19 -0.327169)
(107.463 -1.73479e-19 1.32741)
(106.973 -6.57211e-20 -0.68067)
(107.947 7.16579e-20 1.47004)
(106.285 -1.58224e-19 -0.838189)
(101.977 2.19315e-19 1.36918)
(75.0874 0 -0.940828)
(101.856 -2.42801e-21 2.72864)
(102.011 0 2.4409)
(102.147 6.95658e-20 2.49119)
(102.338 -2.22535e-21 2.36102)
(102.532 7.26654e-20 2.31257)
(102.722 -3.64455e-22 2.23095)
(102.913 9.75566e-20 2.15843)
(103.112 1.08553e-19 2.08376)
(103.322 -1.25897e-20 2.00908)
(103.542 1.09769e-19 1.93492)
(103.773 0 1.86171)
(104.015 1.25047e-19 1.78855)
(104.269 1.33279e-19 1.71904)
(104.536 -1.77124e-19 1.64642)
(104.803 -2.46994e-19 1.58788)
(105.056 2.4015e-21 1.52136)
(105.294 2.51356e-21 1.49099)
(105.52 -1.88783e-19 1.41962)
(105.731 -1.44302e-19 1.43485)
(105.932 -8.39723e-20 1.32793)
(106.115 1.85416e-19 1.42797)
(106.296 -2.12647e-19 1.2263)
(106.454 1.17487e-19 1.48852)
(106.612 -2.33446e-21 1.08877)
(106.757 1.48469e-19 1.64527)
(106.856 1.67231e-19 0.88171)
(107.051 -9.70833e-20 1.91242)
(106.982 2.08964e-19 0.61757)
(107.441 1.15094e-19 2.22508)
(106.996 6.47639e-20 0.402386)
(107.876 -5.78497e-19 2.41467)
(106.071 6.35186e-19 0.435488)
(100.882 7.31004e-19 2.21636)
(73.5706 -1.08774e-18 -0.0909868)
(101.921 6.86781e-20 2.96978)
(102.078 -8.31979e-20 2.70625)
(102.21 8.56453e-21 2.76833)
(102.4 0 2.64957)
(102.595 0 2.61832)
(102.783 -2.25612e-20 2.5499)
(102.973 -1.63601e-19 2.49417)
(103.169 -2.56954e-20 2.43551)
(103.376 2.56942e-20 2.37814)
(103.592 0 2.32194)
(103.819 0 2.26754)
(104.056 0 2.21433)
(104.303 0 2.16574)
(104.563 0 2.11592)
(104.822 1.65023e-19 2.08054)
(105.066 0 2.03671)
(105.295 1.0977e-19 2.02939)
(105.511 3.90417e-22 1.97619)
(105.711 0 2.01552)
(105.902 -3.43314e-21 1.91751)
(106.074 8.97374e-20 2.04399)
(106.245 1.05122e-19 1.83482)
(106.39 0 2.12986)
(106.54 -1.33704e-19 1.69459)
(106.673 7.3645e-20 2.2894)
(106.766 -1.53464e-21 1.47498)
(106.958 -1.86069e-19 2.52137)
(106.875 0 1.18993)
(107.33 -1.15204e-19 2.76609)
(106.885 -5.79568e-19 0.958153)
(107.72 4.85047e-19 2.82883)
(105.816 6.20415e-19 0.934884)
(99.8013 -6.57399e-19 2.56591)
(72.1082 -6.63675e-20 0.434002)
(101.969 0 3.20843)
(102.127 6.68923e-20 2.96719)
(102.256 0 3.04093)
(102.444 0 2.93237)
(102.637 2.15965e-20 2.91761)
(102.824 1.43761e-21 2.86137)
(103.012 2.22371e-20 2.82125)
(103.205 4.91345e-20 2.77741)
(103.407 0 2.73591)
(103.619 0 2.69594)
(103.841 6.27043e-20 2.65846)
(104.071 -6.26982e-20 2.62216)
(104.311 -7.04265e-20 2.59168)
(104.563 6.97149e-20 2.55846)
(104.811 0 2.54164)
(105.046 1.91571e-19 2.51022)
(105.264 -7.0901e-22 2.51883)
(105.47 1.25993e-19 2.47389)
(105.659 0 2.52639)
(105.84 1.47722e-21 2.43489)
(106.001 -1.79347e-19 2.57504)
(106.161 0 2.37385)
(106.295 0 2.68295)
(106.433 0 2.26973)
(106.554 -7.23032e-20 2.87265)
(106.634 2.42735e-19 2.10573)
(106.812 -2.64329e-19 3.14526)
(106.722 4.90837e-20 1.91482)
(107.152 1.09611e-19 3.42628)
(106.727 6.22159e-20 1.82124)
(107.467 0 3.57063)
(105.352 0 1.90753)
(98.4463 -7.47464e-19 3.2745)
(70.4465 1.1385e-18 1.04629)
(102.002 1.11519e-21 3.44192)
(102.159 -8.6129e-20 3.22391)
(102.284 -3.83529e-20 3.30739)
(102.471 -4.10621e-20 3.20876)
(102.662 4.36552e-20 3.20991)
(102.847 -4.36584e-20 3.16451)
(103.031 -9.60556e-20 3.13953)
(103.22 0 3.10914)
(103.418 -5.25029e-20 3.08251)
(103.625 -2.2968e-19 3.05749)
(103.84 -3.51756e-21 3.03547)
(104.064 -3.66297e-21 3.015)
(104.297 -6.96094e-20 3.00069)
(104.54 0 2.98416)