/*--------------------------------*- C++ -*----------------------------------*\
| =========                 |                                                 |
| \\      /  F ield         | OpenFOAM: The Open Source CFD Toolbox           |
|  \\    /   O peration     | Version:  2.3.0                                 |
|   \\  /    A nd           | Web:      www.OpenFOAM.org                      |
|    \\/     M anipulation  |                                                 |
\*---------------------------------------------------------------------------*/
FoamFile
{
    version     2.0;
    format      ascii;
    class       volScalarField;
    location    "300";
    object      k;
}
// * * * * * * * * * * * * * * * * * * * * * * * * * * * * * * * * * * * * * //

dimensions      [0 2 -2 0 0 0 0];

internalField   nonuniform List<scalar> 
28552
(
0.00409987
0.0041026
0.0041057
0.00410926
0.00411337
0.00411818
0.00412385
0.00413062
0.0041388
0.00414882
0.00416129
0.00417709
0.00419752
0.00422491
0.00425861
0.00430036
0.00435235
0.00441743
0.00449941
0.00460346
0.00473685
0.00490954
0.00513767
0.00544098
0.00586791
0.0063839
0.00711323
0.00750927
0.00880275
0.0101476
0.0145012
0.0250864
0.038856
0.046584
0.00410179
0.00410472
0.00410803
0.00411179
0.00411615
0.00412124
0.00412725
0.00413442
0.00414309
0.00415369
0.00416688
0.00418358
0.00420516
0.00423406
0.00426952
0.00431339
0.00436793
0.00443612
0.00452191
0.00463067
0.00477001
0.0049502
0.00518835
0.00550456
0.00595071
0.00645163
0.00719372
0.00754125
0.00886413
0.0101083
0.0143953
0.0249581
0.0391317
0.052086
0.00410382
0.00410696
0.00411049
0.00411448
0.0041191
0.0041245
0.00413088
0.00413848
0.00414766
0.0041589
0.00417287
0.00419055
0.00421337
0.00424391
0.00428131
0.0043275
0.00438487
0.0044565
0.00454657
0.00466062
0.0048067
0.00499545
0.00524515
0.00557633
0.00604508
0.00652293
0.00728356
0.00758319
0.00895289
0.0101066
0.0145789
0.0251082
0.0390619
0.0590168
0.00410596
0.00410933
0.00411309
0.00411734
0.00412224
0.00412798
0.00413474
0.00414281
0.00415255
0.00416448
0.0041793
0.00419804
0.00422222
0.00425455
0.00429409
0.00434288
0.00440341
0.00447894
0.00457386
0.004694
0.00484789
0.00504666
0.0053101
0.00565922
0.00615558
0.00659646
0.00738019
0.00762866
0.00905826
0.0101466
0.0147404
0.0254312
0.0386317
0.068102
0.00410814
0.00411175
0.00411576
0.00412026
0.00412547
0.00413155
0.00413872
0.00414727
0.0041576
0.00417024
0.00418594
0.00420579
0.00423139
0.0042656
0.00430738
0.00435888
0.00442274
0.00450238
0.00460241
0.00472898
0.00489117
0.00510057
0.00537862
0.00574686
0.00626096
0.00665831
0.00745856
0.00766378
0.00913588
0.0101644
0.0148223
0.0255478
0.0381861
0.079712
0.00411041
0.00411429
0.00411855
0.00412334
0.00412886
0.00413531
0.00414291
0.00415198
0.00416293
0.00417634
0.00419299
0.00421403
0.00424116
0.00427739
0.00432161
0.00437608
0.00444359
0.00452774
0.00463345
0.00476716
0.00493865
0.00515999
0.00545464
0.00583943
0.0063591
0.00671362
0.00753295
0.0076943
0.00921495
0.0101919
0.0149099
0.0257496
0.037786
0.0956234
0.00411276
0.00411692
0.00412146
0.00412654
0.0041324
0.00413924
0.0041473
0.00415691
0.00416853
0.00418274
0.00420039
0.0042227
0.00425145
0.00428984
0.00433668
0.00439432
0.00446575
0.00455478
0.00466661
0.00480808
0.00498968
0.00522407
0.00553693
0.00592197
0.00644815
0.00676233
0.00759855
0.00772382
0.00928273
0.0102182
0.0149585
0.0258632
0.0374522
0.117591
0.00411516
0.00411964
0.00412446
0.00412985
0.00413607
0.00414332
0.00415187
0.00416206
0.00417437
0.00418944
0.00420815
0.0042318
0.00426228
0.00430296
0.00435257
0.00441362
0.00448924
0.00458349
0.00470192
0.00485172
0.00504425
0.00529275
0.00562536
0.00599446
0.00652638
0.00680343
0.00765255
0.00775073
0.00933544
0.0102371
0.014975
0.0259135
0.0371925
0.149089
0.00411759
0.00412243
0.00412757
0.00413329
0.00413989
0.00414758
0.00415663
0.00416744
0.0041805
0.00419647
0.00421633
0.00424141
0.00427374
0.00431691
0.00436954
0.00443429
0.00451453
0.00461454
0.0047403
0.00489943
0.00510429
0.00536879
0.00572132
0.00606049
0.00659864
0.00683995
0.00770406
0.00778002
0.00939009
0.0102804
0.0149823
0.0260779
0.0366494
0.199303
0.00412004
0.00412526
0.00413075
0.00413682
0.00414381
0.00415196
0.00416155
0.00417301
0.00418684
0.00420378
0.00422483
0.00425144
0.00428575
0.00433155
0.00438741
0.00445616
0.00454137
0.00464763
0.00478137
0.00495071
0.00516915
0.00545138
0.00580649
0.00611678
0.00665917
0.00686674
0.00774143
0.0078001
0.00942263
0.010305
0.0149414
0.0262072
0.0360092
0.287001
0.00412262
0.00412825
0.00413409
0.00414054
0.00414796
0.0041566
0.00416677
0.00417892
0.00419361
0.00421159
0.00423394
0.00426221
0.00429866
0.00434735
0.00440676
0.00447989
0.0045706
0.0046838
0.00482644
0.0050072
0.00524096
0.00553185
0.00588495
0.00616638
0.00671356
0.00688614
0.00777496
0.00781398
0.00945604
0.0103284
0.0149109
0.0262387
0.0359447
0.474128
0.00412518
0.00413121
0.00413742
0.00414426
0.00415212
0.00416126
0.00417203
0.00418488
0.00420043
0.00421947
0.00424314
0.00427308
0.00431172
0.00436333
0.00442632
0.00450388
0.00460012
0.00472024
0.00487176
0.00506387
0.00531274
0.00559974
0.00594991
0.0062058
0.00674982
0.00689943
0.00778246
0.00782184
0.00944871
0.0102955
0.014815
0.0259251
0.0380186
1.20321
0.00412781
0.00413427
0.00414088
0.00414814
0.00415647
0.00416614
0.00417755
0.00419117
0.00420764
0.00422784
0.00425296
0.00428475
0.00432578
0.00438064
0.00444763
0.00453018
0.0046327
0.00476078
0.00492258
0.00512797
0.00539478
0.00566699
0.00601686
0.00624887
0.00679634
0.006921
0.00780888
0.007846
0.00946743
0.0103297
0.0147498
0.0261755
0.0516686
2.98223
0.00413053
0.00413744
0.00414446
0.00415218
0.004161
0.00417125
0.00418334
0.0041978
0.00421528
0.00423673
0.00426343
0.00429723
0.00434091
0.00439934
0.00447079
0.00455893
0.00466853
0.00480564
0.00497922
0.0051999
0.00547321
0.00572738
0.00607541
0.00628437
0.00683224
0.0069352
0.00782133
0.00786774
0.00947174
0.0103674
0.0146541
0.0265462
0.10077
6.56225
0.00413329
0.00414065
0.0041481
0.00415629
0.00416563
0.00417649
0.00418929
0.0042046
0.00422314
0.00424589
0.00427423
0.00431013
0.00435656
0.00441871
0.00449478
0.00458869
0.00470561
0.00485203
0.0050377
0.00527149
0.00553777
0.00577356
0.0061168
0.00630424
0.006846
0.00693294
0.00780891
0.00786102
0.00944524
0.0103219
0.0145077
0.0262519
0.158815
12.4948
0.00413608
0.00414392
0.00415182
0.00416051
0.0041704
0.00418189
0.00419546
0.00421169
0.00423135
0.0042555
0.0042856
0.00432378
0.00437318
0.00443938
0.00452051
0.00462078
0.0047458
0.00490258
0.00510184
0.00533933
0.0056011
0.00582089
0.00616116
0.006329
0.00686695
0.00693912
0.00780706
0.00786947
0.00942817
0.0103227
0.0143803
0.028121
0.423661
20.8691
0.00413898
0.00414733
0.0041557
0.00416493
0.00417542
0.0041876
0.00420199
0.00421923
0.00424014
0.00426583
0.0042979
0.0043386
0.00439133
0.00446209
0.00454895
0.0046565
0.00479083
0.00495963
0.00517475
0.00540272
0.00565947
0.00586396
0.00620034
0.00635033
0.00688296
0.00694488
0.00779954
0.00788398
0.00940218
0.0103352
0.014377
0.0421536
1.0208
30.5764
0.00414192
0.00415077
0.00415964
0.00416944
0.00418055
0.00419346
0.00420873
0.00422703
0.00424924
0.00427657
0.0043107
0.00435408
0.00441034
0.00448591
0.00457885
0.00469408
0.0048383
0.00501983
0.00523881
0.00545425
0.005705
0.00589489
0.00622544
0.00635966
0.00688278
0.00693745
0.00777597
0.00787671
0.00935938
0.010295
0.0142107
0.0564023
1.7015
40.004
0.00414491
0.00415429
0.00416368
0.00417409
0.00418587
0.00419956
0.00421576
0.00423521
0.00425883
0.00428793
0.00432431
0.00437061
0.00443074
0.00451164
0.00461135
0.00473524
0.00489069
0.00508587
0.00529785
0.00550167
0.00574656
0.00592235
0.00624828
0.00636657
0.00688449
0.00693206
0.00775629
0.00789068
0.0093128
0.0103642
0.0162871
0.136259
2.91692
47.4704
0.00414797
0.00415787
0.0041678
0.00417882
0.00419125
0.00420571
0.00422284
0.00424341
0.00426842
0.00429924
0.00433782
0.00438695
0.00445081
0.00453683
0.00464299
0.00477507
0.00494104
0.00513858
0.00534353
0.00553621
0.00577428
0.00593814
0.00625612
0.00636365
0.00686836
0.00691418
0.00771643
0.00785889
0.00923908
0.010254
0.0161796
0.154662
3.39035
52.6041
0.00415109
0.00416153
0.00417201
0.00418366
0.00419678
0.00421203
0.00423013
0.00425188
0.00427835
0.004311
0.0043519
0.00440404
0.00447191
0.00456343
0.00467663
0.00481772
0.00499546
0.00518909
0.00538863
0.00557187
0.00580522
0.0059577
0.00627235
0.00636828
0.00686634
0.00691505
0.00768766
0.00788343
0.00918369
0.0105647
0.0243812
0.315628
4.6681
55.6787
0.00415429
0.00416528
0.00417631
0.00418861
0.00420242
0.00421848
0.00423754
0.00426048
0.00428842
0.0043229
0.00436614
0.00442129
0.00449315
0.00459017
0.00471036
0.00486041
0.00504573
0.0052316
0.00542504
0.00559921
0.00582618
0.00596867
0.00627598
0.00636296
0.00684898
0.00689601
0.00764672
0.0078457
0.00909707
0.0104779
0.0274141
0.407845
5.23535
56.9895
0.00415755
0.0041691
0.00418069
0.00419364
0.00420815
0.00422501
0.00424505
0.00426919
0.0042986
0.00433492
0.00438049
0.00443866
0.00451452
0.00461703
0.00474419
0.00490315
0.00508853
0.00526717
0.00545489
0.00562083
0.005842
0.00597569
0.00627657
0.00635569
0.0068316
0.00687623
0.00760884
0.00781327
0.00901382
0.0104022
0.030994
0.508271
5.75557
57.317
0.00416082
0.00417292
0.00418508
0.00419871
0.00421394
0.00423163
0.00425268
0.00427804
0.00430898
0.00434723
0.00439524
0.00445658
0.00453665
0.004645
0.00477966
0.00494831
0.00512918
0.00530147
0.00548421
0.00564291
0.00585958
0.00598615
0.00627962
0.00635725
0.00681502
0.00687656
0.0075626
0.00781705
0.00897392
0.011495
0.0526387
0.748134
6.89927
56.7949
0.00416412
0.00417676
0.0041895
0.00420381
0.00421975
0.00423826
0.00426029
0.00428687
0.00431931
0.00435943
0.00440983
0.00447425
0.00455842
0.00467241
0.00481427
0.00498781
0.00516318
0.00532908
0.00550598
0.00565764
0.00586755
0.00598734
0.0062718
0.00634471
0.0067883
0.00684998
0.00751234
0.00774989
0.00887203
0.0113498
0.0572032
0.875579
7.58031
55.6614
0.00416754
0.00418074
0.00419408
0.00420908
0.00422575
0.0042451
0.00426815
0.00429597
0.00432996
0.004372
0.00442484
0.00449244
0.00458081
0.00470061
0.00484989
0.00502383
0.00519418
0.00535428
0.00552602
0.0056714
0.00587571
0.00598917
0.00626698
0.00633449
0.00676802
0.00682936
0.0074667
0.0077051
0.00879334
0.0118677
0.073611
1.10178
8.84274
54.4443
0.00417099
0.00418477
0.00419872
0.00421443
0.00423184
0.00425205
0.00427614
0.00430525
0.00434082
0.00438486
0.00444024
0.00451113
0.0046039
0.00472978
0.00488691
0.00505822
0.00522413
0.00537919
0.00554624
0.00568639
0.00588542
0.00599429
0.00626339
0.00633124
0.00674691
0.00681979
0.00741802
0.00768689
0.00877811
0.013831
0.108938
1.48121
10.9673
53.0355
0.00417451
0.00418888
0.00420344
0.00421989
0.00423804
0.00425912
0.00428425
0.00431465
0.00435182
0.00439786
0.00445579
0.00452998
0.00462715
0.00475912
0.00492232
0.0050888
0.00525003
0.00540015
0.00556195
0.00569716
0.00588985
0.00599452
0.0062551
0.0063208
0.0067225
0.00679691
0.00736932
0.00764293
0.00870456
0.0148122
0.134781
1.82834
13.2061
51.5989
0.00417809
0.00419309
0.00420828
0.00422547
0.0042444
0.00426637
0.00429258
0.00432432
0.00436315
0.00441128
0.00447186
0.00454951
0.00465131
0.00478971
0.0049552
0.00511725
0.00527404
0.00541961
0.00557633
0.00570757
0.00589351
0.00599654
0.00624584
0.00631663
0.00669678
0.00678706
0.00732084
0.00763156
0.00893627
0.0209549
0.217143
2.4854
16.4117
50.1268
0.00418171
0.00419732
0.00421316
0.00423111
0.00425081
0.00427366
0.00430095
0.00433403
0.00437452
0.00442473
0.00448797
0.00456907
0.00467549
0.00482028
0.00498465
0.00514225
0.0052944
0.00543554
0.0055871
0.00571424
0.00589326
0.00599364
0.0062324
0.00630447
0.00666651
0.00676302
0.0072662
0.00758891
0.00902775
0.0249009
0.28146
3.13983
20.0513
48.5273
0.00418538
0.0042016
0.00421808
0.00423679
0.00425727
0.004281
0.00430937
0.00434377
0.00438591
0.00443817
0.00450402
0.00458851
0.00469946
0.00485052
0.00501088
0.00516407
0.00531148
0.0054483
0.0055944
0.00571748
0.00588968
0.00598683
0.00621648
0.00628668
0.00663491
0.00672964
0.00720891
0.00751365
0.00891834
0.0255487
0.318733
3.7585
24.1993
47.3362
0.00418913
0.00420601
0.00422315
0.00424265
0.00426392
0.00428856
0.00431803
0.00435381
0.00439766
0.00445208
0.00452066
0.00460871
0.00472442
0.00488028
0.00503652
0.00518576
0.00532886
0.00546192
0.00560302
0.0057229
0.00588864
0.00598401
0.0062041
0.00627592
0.0066073
0.00670785
0.00715715
0.00748592
0.00926007
0.0343745
0.443137
4.86439
29.3318
46.5128
0.00419297
0.00421056
0.00422836
0.00424867
0.00427075
0.00429631
0.00432692
0.00436411
0.00440972
0.00446633
0.00453771
0.00462942
0.00475012
0.00490893
0.00506124
0.00520684
0.00534566
0.00547551
0.00561143
0.00572902
0.00588753
0.00598247
0.00619138
0.00626642
0.00657874
0.00668585
0.00710445
0.00746113
0.00970973
0.0450346
0.593752
6.18852
35.2369
45.8571
0.00419686
0.00421515
0.00423364
0.00425477
0.00427767
0.00430417
0.00433594
0.00437457
0.00442197
0.00448089
0.00455521
0.00465074
0.00477654
0.00493627
0.0050847
0.00522689
0.00536129
0.00548825
0.00561858
0.00573442
0.00588475
0.0059803
0.00617641
0.0062564
0.00654774
0.00666274
0.00705217
0.00746563
0.0107469
0.0642576
0.830403
8.01106
40.9478
45.2696
0.0042008
0.00421984
0.00423901
0.00426097
0.00428469
0.00431213
0.00434506
0.00438513
0.00443433
0.00449549
0.00457271
0.00467201
0.00480283
0.00496131
0.00510572
0.00524443
0.00537422
0.00549817
0.00562276
0.00573643
0.00587915
0.00597368
0.00615926
0.00623964
0.00651505
0.00662981
0.00699512
0.00741854
0.0110728
0.0748359
1.01155
9.73521
46.1876
45.0343
0.00420483
0.00422466
0.00424452
0.00426736
0.00429192
0.00432032
0.00435446
0.00439602
0.0044471
0.00451061
0.00459083
0.00469406
0.00483003
0.00498525
0.00512566
0.00526107
0.00538627
0.00550756
0.00562648
0.0057386
0.00587357
0.00596819
0.00614255
0.00622555
0.00648336
0.00660127
0.00694336
0.00743918
0.0125861
0.102855
1.34468
11.9796
50.7693
45.1402
0.00420896
0.00422962
0.00425018
0.0042739
0.00429932
0.0043287
0.00436407
0.00440717
0.00446016
0.00452607
0.00460937
0.00471662
0.00485634
0.00500811
0.0051446
0.00527696
0.00539767
0.00551664
0.00562987
0.00574089
0.00586785
0.00596301
0.00612568
0.00621163
0.00645125
0.00657207
0.00689224
0.00747871
0.0144645
0.136688
1.73413
14.3993
54.7191
45.4439
0.0042132
0.00423469
0.00425597
0.00428057
0.00430686
0.00433725
0.00437388
0.00441854
0.00447348
0.00454185
0.0046283
0.00473963
0.00488163
0.00503007
0.00516269
0.0052922
0.00540837
0.00552522
0.00563258
0.00574266
0.0058614
0.00595715
0.00610805
0.00619653
0.00641853
0.00654107
0.00684293
0.00755378
0.0170699
0.181732
2.21522
17.0705
57.9185
45.8766
0.00421751
0.00423983
0.00426184
0.00428734
0.00431452
0.00434593
0.00438384
0.00443009
0.00448702
0.00455789
0.00464755
0.004763
0.00490587
0.00505105
0.00517979
0.00530653
0.0054181
0.00553296
0.00563443
0.00574371
0.00585432
0.00595061
0.00609008
0.0061808
0.00638584
0.00650971
0.00679812
0.00770695
0.0210696
0.245313
2.82154
19.9323
60.3582
46.3901
0.00422201
0.00424517
0.00426794
0.00429435
0.00432244
0.0043549
0.00439414
0.00444204
0.00450105
0.00457451
0.00466752
0.00478716
0.00492949
0.00507143
0.00519629
0.00532036
0.00542736
0.00554038
0.00563596
0.00574464
0.00584703
0.00594411
0.00607189
0.00616518
0.00635294
0.00647867
0.0067632
0.00802713
0.0276933
0.338858
3.60488
23.0698
62.0576
46.858
0.00422667
0.00425066
0.0042742
0.00430154
0.00433055
0.00436408
0.00440468
0.00445425
0.00451536
0.00459146
0.00468784
0.00481161
0.00495212
0.00509087
0.00521181
0.00533328
0.00543562
0.00554686
0.00563644
0.00574445
0.00583875
0.00593607
0.00605283
0.0061471
0.00631937
0.00644435
0.00672452
0.00829374
0.033826
0.434857
4.43461
26.0653
63.1461
47.384
0.00423143
0.00425626
0.00428059
0.00430887
0.00433883
0.00437346
0.00441547
0.00446679
0.00453008
0.00460893
0.00470884
0.00483675
0.00497436
0.00510995
0.00522703
0.00534597
0.00544376
0.00555324
0.00563708
0.00574442
0.00583092
0.00592872
0.00603456
0.00613076
0.00628718
0.00641537
0.0067367
0.00938434
0.0514319
0.635319
5.71399
29.2614
63.7298
47.7287
0.00423639
0.00426205
0.00428719
0.00431641
0.00434733
0.0043831
0.00442653
0.00447962
0.00454512
0.00462675
0.0047302
0.0048614
0.0049958
0.00512827
0.00524144
0.0053579
0.00545104
0.00555881
0.00563673
0.00574329
0.0058219
0.0059196
0.00601483
0.00611121
0.00625316
0.00638064
0.00672563
0.0101018
0.0645407
0.809078
6.92769
32.0642
63.9237
48.0377
0.00424161
0.0042681
0.00429408
0.00432425
0.00435616
0.0043931
0.00443802
0.00449293
0.00456072
0.00464523
0.00475228
0.00488583
0.00501698
0.00514631
0.00525555
0.00536952
0.005458
0.00556401
0.00563604
0.00574164
0.00581266
0.00590976
0.00599519
0.00609082
0.00621973
0.00634697
0.00673946
0.0112604
0.0845778
1.05308
8.46343
34.6587
63.7871
48.3351
0.00424703
0.00427434
0.00430119
0.00433233
0.00436527
0.00440344
0.00444992
0.00450675
0.00457696
0.00466449
0.00477526
0.00491033
0.00503823
0.00516444
0.00526986
0.00538137
0.0054654
0.00556959
0.00563618
0.00574066
0.00580457
0.00590112
0.00597693
0.00607258
0.00618835
0.0063246
0.00689958
0.0145815
0.130094
1.48304
10.6717
37.1851
63.3734
48.4702
0.00425258
0.00428071
0.00430844
0.00434055
0.00437452
0.00441394
0.00446199
0.00452075
0.00459338
0.00468396
0.00479835
0.0049342
0.00505887
0.00518204
0.00528364
0.00539282
0.00547232
0.00557487
0.00563577
0.00573928
0.00579579
0.00589163
0.00595772
0.00605233
0.00615562
0.00629617
0.00700044
0.017058
0.16865
1.89877
12.7251
39.1934
62.8968
48.545
0.00425839
0.00428736
0.00431599
0.0043491
0.00438414
0.00442487
0.00447457
0.00453537
0.00461055
0.00470431
0.00482236
0.0049583
0.00507971
0.00519982
0.00529766
0.00540445
0.00547957
0.0055803
0.0056358
0.00573802
0.00578756
0.00588234
0.00593933
0.0060328
0.00612507
0.00628423
0.00734728
0.0231172
0.246572
2.54342
15.0771
40.9387
62.2034
48.5382
0.00426428
0.0042941
0.00432366
0.00435778
0.00439393
0.00443602
0.00448743
0.00455034
0.00462818
0.00472526
0.00484697
0.00498238
0.00510055
0.00521758
0.00531174
0.00541607
0.00548703
0.00558573
0.00563637
0.00573695
0.0057802
0.00587368
0.0059222
0.00601491
0.00609951
0.0063247
0.00840285
0.0375362
0.39515
3.4947
17.6916
42.4785
61.4903
48.3161
0.00427028
0.00430095
0.00433145
0.00436659
0.00440385
0.00444731
0.00450045
0.00456549
0.00464601
0.00474639
0.00487163
0.00500596
0.00512082
0.00523478
0.00532517
0.00542701
0.00549369
0.00559034
0.00563594
0.00573477
0.00577159
0.00586338
0.0059035
0.00599444
0.00607311
0.00637138
0.00952762
0.0524439
0.547979
4.45004
20.0656
43.6824
60.7869
47.9265
0.00427672
0.00430823
0.0043397
0.00437586
0.00441428
0.00445919
0.00451413
0.0045814
0.00466469
0.00476847
0.00489707
0.00502971
0.00514113
0.00525184
0.00533832
0.00543742
0.00549971
0.00559391
0.00563447
0.00573088
0.00576162
0.00585073
0.00588339
0.00597131
0.00604776
0.00644718
0.0110604
0.0720624
0.738269
5.54749
22.3007
44.5859
60.1183
47.568
0.00428355
0.00431589
0.00434836
0.00438555
0.00442518
0.0044716
0.00452841
0.00459799
0.00468414
0.00479137
0.00492313
0.00505362
0.00516148
0.00526879
0.00535128
0.00544741
0.00550524
0.0055967
0.00563231
0.00572594
0.00575088
0.00583682
0.00586254
0.00594695
0.0060233
0.00653952
0.012782
0.0937902
0.945839
6.73936
24.3473
45.2116
59.174
47.3266
0.00429052
0.0043237
0.00435717
0.00439541
0.00443626
0.00448422
0.00454293
0.00461484
0.00470387
0.00481453
0.0049493
0.00507758
0.00518186
0.00528582
0.00536424
0.00545747
0.00551076
0.00559961
0.00563013
0.00572118
0.00574023
0.00582311
0.0058419
0.00592266
0.00599805
0.00661385
0.0142864
0.114385
1.15449
7.90017
26.118
45.5354
58.2231
47.2423
0.00429788
0.00433193
0.00436646
0.0044058
0.00444797
0.00449761
0.00455839
0.00463286
0.00472506
0.00483941
0.00497699
0.00510303
0.00520378
0.00530424
0.00537892
0.00546897
0.00551838
0.00560402
0.0056306
0.00571815
0.00573264
0.00581164
0.00582486
0.00590449
0.00601629
0.00720655
0.0217137
0.187749
1.64808
9.64697
28.1133
45.8635
57.2278
46.9656
0.00430576
0.00434067
0.0043763
0.00441676
0.00446032
0.00451174
0.0045747
0.00465186
0.00474735
0.00486541
0.00500551
0.00512954
0.00522676
0.00532371
0.0053947
0.00548157
0.00552711
0.00560958
0.00563203
0.00571617
0.00572566
0.00580086
0.00580802
0.00588735
0.0060453
0.00787597
0.0294296
0.260209
2.12175
11.2837
29.7387
46.0609
56.4972
46.4953
0.0043138
0.00434961
0.00438635
0.00442796
0.00447296
0.00452622
0.00459144
0.00467138
0.00477025
0.00489205
0.00503453
0.00515705
0.00525079
0.00534426
0.0054116
0.00549516
0.00553681
0.00561581
0.00563415
0.00571438
0.00571899
0.00578976
0.00579164
0.00587425
0.00612867
0.00913454
0.042758
0.372526
2.74834
13.1068
31.2418
46.1846
55.6924
45.9969
0.00432214
0.00435888
0.00439677
0.00443957
0.00448609
0.00454129
0.00460888
0.00469174
0.00479412
0.00491968
0.00506438
0.00518586
0.0052761
0.00536599
0.00542966
0.00550965
0.00554743
0.00562254
0.00563695
0.00571273
0.00571282
0.00577873
0.00577663
0.00587155
0.00632196
0.0114392
0.0644935
0.533047
3.51969
14.9901
32.6068
46.2541
54.9095
45.424
0.00433115
0.00436882
0.00440791
0.00445195
0.00450009
0.00455736
0.00462748
0.00471343
0.00481947
0.00494878
0.00509538
0.0052162
0.00530286
0.00538901
0.00544893
0.00552508
0.00555893
0.00562984
0.00564025
0.00571128
0.00570674
0.00576758
0.00576233
0.00587785
0.00659886
0.0143878
0.0903323
0.711425
4.31631
16.7475
33.7456
46.2407
54.1503
44.8351
0.00434051
0.00437916
0.00441947
0.00446481
0.00451466
0.00457412
0.00464688
0.00473606
0.00484588
0.0049789
0.00512729
0.00524806
0.00533116
0.00541348
0.00546964
0.00554171
0.0055716
0.00563792
0.0056444
0.00571026
0.00570118
0.00575665
0.00575072
0.0059077
0.00709497
0.0191794
0.129146
0.953846
5.28397
18.5107
34.7176
46.0834
53.3461
44.2788
0.00435023
0.00438989
0.00443147
0.00447818
0.00452984
0.00459162
0.00466718
0.00475976
0.00487349
0.00501024
0.00516032
0.00528182
0.00536139
0.00543983
0.00549229
0.00556002
0.00558603
0.00564743
0.005648
0.00571008
0.0056971
0.00574732
0.0057465
0.00599523
0.00808061
0.0277105
0.191157
1.29595
6.49247
20.2964
35.5861
45.8862
52.5439
43.6469
0.00436069
0.0044014
0.0044443
0.00449247
0.00454611
0.00461038
0.00468895
0.00478516
0.00490295
0.00504336
0.00519496
0.0053179
0.00539401
0.00546849
0.00551732
0.00558049
0.0056027
0.00565862
0.00565566
0.00571013
0.00568971
0.00573968
0.00575302
0.00616315
0.00966668
0.0401979
0.274018
1.71277
7.82155
21.9726
36.3156
45.6624
51.8043
42.9477
0.00437168
0.00441349
0.00445779
0.00450752
0.00456328
0.00463023
0.00471203
0.00481208
0.0049341
0.00507813
0.00523114
0.00535519
0.00542936
0.0054999
0.00554523
0.00560358
0.00562212
0.00567209
0.00566581
0.0057129
0.00568557
0.0057329
0.00578154
0.006539
0.0127591
0.0623102
0.404888
2.28671
9.35953
23.6521
36.9898
45.4185
51.0134
42.174
0.00438317
0.00442613
0.00447189
0.0045233
0.00458132
0.00465111
0.00473631
0.00484038
0.0049667
0.00511429
0.00526866
0.00539364
0.00546766
0.00553437
0.00557632
0.00562973
0.00564458
0.00568834
0.00567869
0.00571781
0.00568684
0.00573427
0.00585499
0.0072147
0.0177755
0.0948218
0.577974
2.96504
10.9774
25.1993
37.5503
45.1621
50.2667
41.326
0.00439541
0.00443959
0.0044869
0.00454013
0.00460062
0.00467349
0.00476237
0.00487073
0.0050015
0.00515256
0.00530812
0.00543384
0.00550953
0.00557255
0.00561139
0.00565968
0.00567102
0.0057081
0.00569517
0.00572596
0.00569481
0.00575573
0.00604457
0.00863392
0.0272154
0.149522
0.834959
3.84008
12.769
26.719
38.0626
44.8916
49.4776
40.3859
0.00440847
0.00445395
0.00450293
0.00455815
0.00462134
0.00469756
0.00479041
0.00490331
0.00503865
0.00519306
0.00534963
0.00547609
0.00555534
0.00561494
0.00565108
0.00569427
0.00570236
0.00573254
0.00571645
0.00573907
0.00571212
0.00581755
0.0064776
0.0114629
0.0440195
0.235978
1.19278
4.91013
14.6436
28.1722
38.5139
44.6106
48.6998
39.33
0.00442218
0.00446905
0.00451982
0.00457722
0.00464333
0.00472315
0.00482025
0.00493793
0.00507793
0.00523562
0.00539318
0.00552059
0.00560422
0.00566209
0.00569615
0.00573453
0.00573989
0.00576322
0.0057445
0.00576064
0.00575121
0.00598491
0.0075076
0.0174802
0.0758199
0.379959
1.71335
6.2664
16.6705
29.6177
38.9475
44.3261
47.8665
38.1047
0.00443677
0.00448515
0.00453786
0.00459766
0.00466698
0.00475071
0.0048524
0.00497514
0.00511991
0.00528076
0.00543922
0.00556772
0.00565542
0.00571431
0.00574715
0.00578129
0.00578475
0.00580167
0.0057819
0.0057985
0.00585029
0.00645954
0.0101391
0.0311344
0.139131
0.628649
2.48912
7.99646
18.8947
31.0786
39.3668
44.0345
47.0622
36.6543
0.00445206
0.00450198
0.0045567
0.00461904
0.00469169
0.00477946
0.0048858
0.00501353
0.00516274
0.00532627
0.00548526
0.0056146
0.00570571
0.00576708
0.00579957
0.00583047
0.00583332
0.00584567
0.00582976
0.00586949
0.00610042
0.00767607
0.0162009
0.0589028
0.251388
1.0108
3.52612
10.0119
21.1707
32.5382
39.8541
43.8541
46.0781
34.9682
0.00446538
0.00451668
0.0045732
0.00463782
0.00471346
0.00480481
0.00491525
0.00504728
0.00520024
0.00536593
0.0055254
0.00565561
0.00574957
0.00581344
0.00584639
0.00587549
0.00587904
0.0058899
0.00588658
0.00599421
0.00662864
0.0102328
0.0280905
0.108807
0.433631
1.56501
4.85172
12.2517
23.4355
33.9118
40.2965
43.5981
45.3232
33.3114
0.0044769
0.00452942
0.00458755
0.0046542
0.00473248
0.00482698
0.00494099
0.00507672
0.00523281
0.00540028
0.0055602
0.00569125
0.0057876
0.00585374
0.00588742
0.00591559
0.00592067
0.00593384
0.00595851
0.00621592
0.00764949
0.0150217
0.0488355
0.188377
0.695971
2.28559
6.42511
14.6858
25.9073
35.5157
41.2159
44.2115
44.865
30.9071
0.00409804
0.00410059
0.00410351
0.00410687
0.00411076
0.0041153
0.00412066
0.00412706
0.00413479
0.00414427
0.00415607
0.00417103
0.0041904
0.00421638
0.00424846
0.00428827
0.00433791
0.00440012
0.0044786
0.00457831
0.00470623
0.004872
0.0050909
0.00538226
0.00579135
0.00631051
0.00702864
0.00747874
0.00877508
0.0101929
0.0146679
0.0253117
0.0391253
0.0419922
0.00409798
0.0041005
0.00410338
0.00410668
0.00411049
0.00411493
0.00412017
0.00412641
0.00413393
0.00414313
0.00415456
0.004169
0.00418766
0.00421261
0.00424334
0.00428137
0.00432868
0.00438782
0.00446223
0.00455649
0.00467703
0.0048327
0.00503728
0.0053087
0.00568577
0.00618591
0.00687975
0.00733685
0.0085703
0.00984238
0.0139048
0.0239125
0.0394356
0.0376972
0.00409791
0.00410039
0.00410322
0.00410645
0.00411018
0.00411452
0.00411963
0.00412569
0.00413299
0.0041419
0.00415293
0.00416684
0.00418475
0.00420862
0.00423794
0.00427414
0.00431904
0.00437504
0.00444527
0.00453399
0.00464705
0.00479255
0.00498282
0.00523435
0.00558063
0.00605061
0.00673996
0.00716711
0.00838165
0.00942832
0.013067
0.0219781
0.0398361
0.0342185
0.0040978
0.00410024
0.00410302
0.00410618
0.00410982
0.00411406
0.00411902
0.00412491
0.00413198
0.00414059
0.00415122
0.00416459
0.00418176
0.00420455
0.00423249
0.00426689
0.00430947
0.00436244
0.00442872
0.00451223
0.00461836
0.00475454
0.00493194
0.00516581
0.00548546
0.00591957
0.00658764
0.00701624
0.00816685
0.00915952
0.0125317
0.0204485
0.0397887
0.0312862
0.0040977
0.00410009
0.0041028
0.00410589
0.00410944
0.00411356
0.00411838
0.00412408
0.00413092
0.00413921
0.00414943
0.00416225
0.00417865
0.00420034
0.00422686
0.00425944
0.00429966
0.00434957
0.00441186
0.00449014
0.00458934
0.00471627
0.004881
0.00509753
0.00539147
0.00579049
0.00639349
0.00685879
0.0079196
0.00887803
0.0118808
0.0187465
0.0393487
0.0288038
0.00409754
0.00409988
0.00410252
0.00410553
0.00410898
0.00411298
0.00411765
0.00412316
0.00412975
0.00413772
0.00414751
0.00415976
0.00417538
0.00419596
0.00422105
0.0042518
0.00428968
0.00433657
0.00439497
0.00446819
0.00456077
0.00467895
0.00483187
0.00503244
0.00530326
0.00567087
0.00621896
0.00674714
0.00776234
0.00869955
0.0115385
0.0176277
0.0375006
0.0266537
0.00409737
0.00409965
0.00410222
0.00410515
0.0041085
0.00411237
0.00411688
0.0041222
0.00412853
0.00413617
0.00414554
0.0041572
0.00417202
0.00419148
0.00421513
0.00424404
0.00427957
0.00432345
0.00437797
0.00444619
0.00453225
0.00464186
0.00478333
0.0049685
0.00521739
0.00555522
0.00605295
0.00663844
0.00761888
0.00858993
0.0113
0.0170029
0.0363315
0.024758
0.00409712
0.00409933
0.00410183
0.00410466
0.0041079
0.00411164
0.00411598
0.00412107
0.00412713
0.00413442
0.00414332
0.00415436
0.00416834
0.00418659
0.00420872
0.00423569
0.00426873
0.00430944
0.00435988
0.00442284
0.00450205
0.00460269
0.00473221
0.00490132
0.00512754
0.00543442
0.00588081
0.00649935
0.0074711
0.00841475
0.0109779
0.0159376
0.0361927
0.0230891
0.00409682
0.00409896
0.00410138
0.00410411
0.00410723
0.00411082
0.00411498
0.00411985
0.00412562
0.00413253
0.00414094
0.00415134
0.00416444
0.00418146
0.00420201
0.00422697
0.00425745
0.00429488
0.00434113
0.00439867
0.00447087
0.00456232
0.00467965
0.00483237
0.00503568
0.00531101
0.00570637
0.00626508
0.00725238
0.00814685
0.0105194
0.014262
0.0357837
0.0216383
0.00409647
0.00409854
0.00410088
0.00410351
0.0041065
0.00410994
0.00411391
0.00411855
0.00412402
0.00413056
0.00413848
0.00414823
0.00416044
0.00417623
0.00419522
0.00421821
0.00424618
0.00428042
0.0043226
0.00437494
0.00444043
0.00452317
0.00462906
0.00476656
0.00494895
0.00519563
0.00554663
0.00604614
0.00690324
0.00793542
0.0101905
0.0132272
0.0340647
0.0203599
0.00409607
0.00409808
0.00410032
0.00410285
0.00410571
0.00410899
0.00411277
0.00411717
0.00412234
0.00412849
0.00413591
0.004145
0.00415633
0.00417088
0.00418831
0.00420933
0.0042348
0.00426587
0.00430402
0.0043512
0.00441007
0.00448427
0.00457897
0.00470167
0.0048639
0.00508298
0.00539232
0.00583486
0.00657158
0.00765853
0.00986502
0.012261
0.0327741
0.0192254
0.00409564
0.00409757
0.00409972
0.00410214
0.00410487
0.00410799
0.00411158
0.00411573
0.0041206
0.00412637
0.00413329
0.00414172
0.00415217
0.0041655
0.0041814
0.00420049
0.00422353
0.00425153
0.00428579
0.00432803
0.00438059
0.00444667
0.00453081
0.0046396
0.0047831
0.00497668
0.00524854
0.00563901
0.00627453
0.00724041
0.00962203
0.0116757
0.031485
0.0182065
0.00409515
0.00409699
0.00409905
0.00410136
0.00410396
0.00410691
0.0041103
0.00411421
0.00411876
0.00412414
0.00413055
0.00413832
0.00414789
0.00416001
0.00417439
0.00419156
0.0042122
0.00423716
0.00426758
0.00430493
0.00435125