# vtk DataFile Version 2.0
track0
ASCII
DATASET POLYDATA
POINTS 8203 float
0.0624513 -0.666667 -0.0389216
0.0634193 -0.666667 -0.0391716
0.0643872 -0.666667 -0.0394217
0.0665167 -0.666667 -0.0399718
0.0675815 -0.666667 -0.0402468
0.0699319 -0.666667 -0.0408202
0.0711071 -0.666667 -0.0411069
0.0737039 -0.666667 -0.041689
0.0750023 -0.666667 -0.04198
0.077863 -0.666667 -0.0426016
0.0792933 -0.666667 -0.0429124
0.0824485 -0.666667 -0.0435559
0.0840261 -0.666667 -0.0438776
0.0875033 -0.666667 -0.0445525
0.089242 -0.666667 -0.0448899
0.093073 -0.666667 -0.0456003
0.0949885 -0.666667 -0.0459556
0.099214 -0.666667 -0.0466733
0.101327 -0.666667 -0.0470322
0.105984 -0.666667 -0.0477644
0.108313 -0.666667 -0.0481305
0.113445 -0.666667 -0.0488759
0.116011 -0.666667 -0.0492486
0.121657 -0.666667 -0.0500685
0.124479 -0.666667 -0.0504784
0.130706 -0.666667 -0.0512601
0.133819 -0.666667 -0.0516509
0.140681 -0.666667 -0.0523965
0.144112 -0.666667 -0.0527694
0.151663 -0.666667 -0.0535662
0.155438 -0.666667 -0.0539647
0.163756 -0.666667 -0.0547255
0.167915 -0.666667 -0.0551059
0.177077 -0.666667 -0.0557849
0.181658 -0.666667 -0.0561244
0.191741 -0.666667 -0.0568037
0.196783 -0.666667 -0.0571433
0.207464 -0.666667 -0.0576636
0.212805 -0.666667 -0.0579237
0.223486 -0.666667 -0.058444
0.228826 -0.666667 -0.0587041
0.239515 -0.666667 -0.0590136
0.24486 -0.666667 -0.0591683
0.255551 -0.666667 -0.0594238
0.260896 -0.666667 -0.0595516
0.271588 -0.666667 -0.059751
0.276934 -0.666667 -0.0598507
0.287627 -0.666667 -0.0598771
0.292974 -0.666667 -0.0598903
0.303668 -0.666667 -0.0599167
0.309015 -0.666667 -0.0599299
0.065452 -0.666667 -0.0396967
0.0665167 -0.666667 -0.0399718
0.0675815 -0.666667 -0.0402468
0.0699319 -0.666667 -0.0408202
0.0711071 -0.666667 -0.0411069
0.0737039 -0.666667 -0.041689
0.0750023 -0.666667 -0.04198
0.077863 -0.666667 -0.0426016
0.0792933 -0.666667 -0.0429124
0.0824485 -0.666667 -0.0435559
0.0840261 -0.666667 -0.0438776
0.0875033 -0.666667 -0.0445525
0.089242 -0.666667 -0.0448899
0.093073 -0.666667 -0.0456003
0.0949885 -0.666667 -0.0459556
0.099214 -0.666667 -0.0466733
0.101327 -0.666667 -0.0470322
0.105984 -0.666667 -0.0477644
0.108313 -0.666667 -0.0481305
0.113445 -0.666667 -0.0488759
0.116011 -0.666667 -0.0492486
0.121657 -0.666667 -0.0500685
0.124479 -0.666667 -0.0504784
0.130706 -0.666667 -0.0512601
0.133819 -0.666667 -0.0516509
0.140681 -0.666667 -0.0523965
0.144112 -0.666667 -0.0527694
0.151663 -0.666667 -0.0535662
0.155438 -0.666667 -0.0539647
0.163756 -0.666667 -0.0547255
0.167915 -0.666667 -0.0551059
0.177077 -0.666667 -0.0557849
0.181658 -0.666667 -0.0561244
0.191741 -0.666667 -0.0568037
0.196783 -0.666667 -0.0571433
0.207464 -0.666667 -0.0576636
0.212805 -0.666667 -0.0579237
0.223486 -0.666667 -0.058444
0.228826 -0.666667 -0.0587041
0.239515 -0.666667 -0.0590136
0.24486 -0.666667 -0.0591683
0.255551 -0.666667 -0.0594238
0.260896 -0.666667 -0.0595516
0.271588 -0.666667 -0.059751
0.276934 -0.666667 -0.0598507
0.287627 -0.666667 -0.0598771
0.292974 -0.666667 -0.0598903
0.303668 -0.666667 -0.0599167
0.309015 -0.666667 -0.0599299
0.319708 -0.666667 -0.0598792
0.325055 -0.666667 -0.0598539
0.0687567 -0.666667 -0.0405335
0.0699319 -0.666667 -0.0408202
0.0711071 -0.666667 -0.0411069
0.0737039 -0.666667 -0.041689
0.0750023 -0.666667 -0.04198
0.077863 -0.666667 -0.0426016
0.0792933 -0.666667 -0.0429124
0.0824485 -0.666667 -0.0435559
0.0840261 -0.666667 -0.0438776
0.0875033 -0.666667 -0.0445525
0.089242 -0.666667 -0.0448899
0.093073 -0.666667 -0.0456003
0.0949885 -0.666667 -0.0459556
0.099214 -0.666667 -0.0466733
0.101327 -0.666667 -0.0470322
0.105984 -0.666667 -0.0477644
0.108313 -0.666667 -0.0481305
0.113445 -0.666667 -0.0488759
0.116011 -0.666667 -0.0492486
0.121657 -0.666667 -0.0500685
0.124479 -0.666667 -0.0504784
0.130706 -0.666667 -0.0512601
0.133819 -0.666667 -0.0516509
0.140681 -0.666667 -0.0523965
0.144112 -0.666667 -0.0527694
0.151663 -0.666667 -0.0535662
0.155438 -0.666667 -0.0539647
0.163756 -0.666667 -0.0547255
0.167915 -0.666667 -0.0551059
0.177077 -0.666667 -0.0557849
0.181658 -0.666667 -0.0561244
0.191741 -0.666667 -0.0568037
0.196783 -0.666667 -0.0571433
0.207464 -0.666667 -0.0576636
0.212805 -0.666667 -0.0579237
0.223486 -0.666667 -0.058444
0.228826 -0.666667 -0.0587041
0.239515 -0.666667 -0.0590136
0.24486 -0.666667 -0.0591683
0.255551 -0.666667 -0.0594238
0.260896 -0.666667 -0.0595516
0.271588 -0.666667 -0.059751
0.276934 -0.666667 -0.0598507
0.287627 -0.666667 -0.0598771
0.292974 -0.666667 -0.0598903
0.303668 -0.666667 -0.0599167
0.309015 -0.666667 -0.0599299
0.319708 -0.666667 -0.0598792
0.325055 -0.666667 -0.0598539
0.335747 -0.666667 -0.0596835
0.341094 -0.666667 -0.0595984
0.0737039 -0.333333 -0.041689
0.0750023 -0.333333 -0.04198
0.0764327 -0.333333 -0.0422908
0.0792933 -0.333333 -0.0429124
0.0808709 -0.333333 -0.0432341
0.0840261 -0.333333 -0.0438776
0.0857647 -0.333333 -0.044215
0.089242 -0.333333 -0.0448899
0.0911575 -0.333333 -0.0452451
0.0949885 -0.333333 -0.0459556
0.0971013 -0.333333 -0.0463145
0.101327 -0.333333 -0.0470322
0.103655 -0.333333 -0.0473983
0.108313 -0.333333 -0.0481305
0.110879 -0.333333 -0.0485032
0.116011 -0.333333 -0.0492486
0.118834 -0.333333 -0.0496585
0.124479 -0.333333 -0.0504784
0.127592 -0.333333 -0.0508693
0.133819 -0.333333 -0.0516509
0.13725 -0.333333 -0.0520237
0.144112 -0.333333 -0.0527694
0.147887 -0.333333 -0.0531678
0.155438 -0.333333 -0.0539647
0.159597 -0.333333 -0.0543451
0.167915 -0.333333 -0.0551059
0.172496 -0.333333 -0.0554454
0.181658 -0.333333 -0.0561244
0.1867 -0.333333 -0.056464
0.196783 -0.333333 -0.0571433
0.202124 -0.333333 -0.0574034
0.212805 -0.333333 -0.0579237
0.218145 -0.333333 -0.0581838
0.228826 -0.333333 -0.0587041
0.234171 -0.333333 -0.0588588
0.24486 -0.333333 -0.0591683
0.250205 -0.333333 -0.0592961
0.260896 -0.333333 -0.0595516
0.266242 -0.333333 -0.0596513
0.276934 -0.333333 -0.0598507
0.282281 -0.333333 -0.0598639
0.292974 -0.333333 -0.0598903
0.298321 -0.333333 -0.0599035
0.309015 -0.333333 -0.0599299
0.314361 -0.333333 -0.0599045
0.325055 -0.333333 -0.0598539
0.330401 -0.333333 -0.0597687
0.341094 -0.333333 -0.0595984
0.346439 -0.333333 -0.0594969
0.357131 -0.333333 -0.059294
0.077863 -0.333333 -0.0426016
0.0792933 -0.333333 -0.0429124
0.0808709 -0.333333 -0.0432341
0.0840261 -0.333333 -0.0438776
0.0857647 -0.333333 -0.044215
0.089242 -0.333333 -0.0448899
0.0911575 -0.333333 -0.0452451
0.0949885 -0.333333 -0.0459556
0.0971013 -0.333333 -0.0463145
0.101327 -0.333333 -0.0470322
0.103655 -0.333333 -0.0473983
0.108313 -0.333333 -0.0481305
0.110879 -0.333333 -0.0485032
0.116011 -0.333333 -0.0492486
0.118834 -0.333333 -0.0496585
0.124479 -0.333333 -0.0504784
0.127592 -0.333333 -0.0508693
0.133819 -0.333333 -0.0516509
0.13725 -0.333333 -0.0520237
0.144112 -0.333333 -0.0527694
0.147887 -0.333333 -0.0531678
0.155438 -0.333333 -0.0539647
0.159597 -0.333333 -0.0543451
0.167915 -0.333333 -0.0551059
0.172496 -0.333333 -0.0554454
0.181658 -0.333333 -0.0561244
0.1867 -0.333333 -0.056464
0.196783 -0.333333 -0.0571433
0.202124 -0.333333 -0.0574034
0.212805 -0.333333 -0.0579237
0.218145 -0.333333 -0.0581838
0.228826 -0.333333 -0.0587041
0.234171 -0.333333 -0.0588588
0.24486 -0.333333 -0.0591683
0.250205 -0.333333 -0.0592961
0.260896 -0.333333 -0.0595516
0.266242 -0.333333 -0.0596513
0.276934 -0.333333 -0.0598507
0.282281 -0.333333 -0.0598639
0.292974 -0.333333 -0.0598903
0.298321 -0.333333 -0.0599035
0.309015 -0.333333 -0.0599299
0.314361 -0.333333 -0.0599045
0.325055 -0.333333 -0.0598539
0.330401 -0.333333 -0.0597687
0.341094 -0.333333 -0.0595984
0.346439 -0.333333 -0.0594969
0.357131 -0.333333 -0.059294
0.362476 -0.333333 -0.0591368
0.373165 -0.333333 -0.0588223
0.0824485 -0.333333 -0.0435559
0.0840261 -0.333333 -0.0438776
0.0857647 -0.333333 -0.044215
0.089242 -0.333333 -0.0448899
0.0911575 -0.333333 -0.0452451
0.0949885 -0.333333 -0.0459556
0.0971013 -0.333333 -0.0463145
0.101327 -0.333333 -0.0470322
0.103655 -0.333333 -0.0473983
0.108313 -0.333333 -0.0481305
0.110879 -0.333333 -0.0485032
0.116011 -0.333333 -0.0492486
0.118834 -0.333333 -0.0496585
0.124479 -0.333333 -0.0504784
0.127592 -0.333333 -0.0508693
0.133819 -0.333333 -0.0516509
0.13725 -0.333333 -0.0520237
0.144112 -0.333333 -0.0527694
0.147887 -0.333333 -0.0531678
0.155438 -0.333333 -0.0539647
0.159597 -0.333333 -0.0543451
0.167915 -0.333333 -0.0551059
0.172496 -0.333333 -0.0554454
0.181658 -0.333333 -0.0561244
0.1867 -0.333333 -0.056464
0.196783 -0.333333 -0.0571433
0.202124 -0.333333 -0.0574034
0.212805 -0.333333 -0.0579237
0.218145 -0.333333 -0.0581838
0.228826 -0.333333 -0.0587041
0.234171 -0.333333 -0.0588588
0.24486 -0.333333 -0.0591683
0.250205 -0.333333 -0.0592961
0.260896 -0.333333 -0.0595516
0.266242 -0.333333 -0.0596513
0.276934 -0.333333 -0.0598507
0.282281 -0.333333 -0.0598639
0.292974 -0.333333 -0.0598903
0.298321 -0.333333 -0.0599035
0.309015 -0.333333 -0.0599299
0.314361 -0.333333 -0.0599045
0.325055 -0.333333 -0.0598539
0.330401 -0.333333 -0.0597687
0.341094 -0.333333 -0.0595984
0.346439 -0.333333 -0.0594969
0.357131 -0.333333 -0.059294
0.362476 -0.333333 -0.0591368
0.373165 -0.333333 -0.0588223
0.378509 -0.333333 -0.0586502
0.389197 -0.333333 -0.058306
0.0875033 -0.333333 -0.0445525
0.089242 -0.333333 -0.0448899
0.0911575 -0.333333 -0.0452451
0.0949885 -0.333333 -0.0459556
0.0971013 -0.333333 -0.0463145
0.101327 -0.333333 -0.0470322
0.103655 -0.333333 -0.0473983
0.108313 -0.333333 -0.0481305
0.110879 -0.333333 -0.0485032
0.116011 -0.333333 -0.0492486
0.118834 -0.333333 -0.0496585
0.124479 -0.333333 -0.0504784
0.127592 -0.333333 -0.0508693
0.133819 -0.333333 -0.0516509
0.13725 -0.333333 -0.0520237
0.144112 -0.333333 -0.0527694
0.147887 -0.333333 -0.0531678
0.155438 -0.333333 -0.0539647
0.159597 -0.333333 -0.0543451
0.167915 -0.333333 -0.0551059
0.172496 -0.333333 -0.0554454
0.181658 -0.333333 -0.0561244
0.1867 -0.333333 -0.056464
0.196783 -0.333333 -0.0571433
0.202124 -0.333333 -0.0574034
0.212805 -0.333333 -0.0579237
0.218145 -0.333333 -0.0581838
[...]
POINT_DATA 8203
 FIELD attributes 2
U 3 8203 float
-1.23036e-13 	-4.55545e-34 	4.23338e-14 3.42744e-13 	1.26902e-33 	-1.1793e-13 0 	0 	0 4.12649e-13 	-2.34444e-33 	-1.36131e-13 0 	0 	0 -4.17879e-13 	4.34937e-34 	1.30764e-13 0 	0 	0 -4.14045e-13 	-1.44249e-34 	1.21999e-13 0 	0 	0 -2.95648e-13 	-1.21806e-35 	8.26173e-14 0 	0 	0 1.75381e-13 	4.59253e-36 	-4.64149e-14 0 	0 	0 -2.96786e-13 	7.65062e-36 	7.43702e-14 0 	0 	0 3.00509e-13 	5.71635e-34 	-7.11615e-14 0 	0 	0 -9.80228e-14 	5.28946e-37 	2.17126e-14 0 	0 	0 9.86293e-14 	-8.00377e-34 	-2.04439e-14 0 	0 	0 2.17444e-13 	-1.87905e-33 	-4.25664e-14 0 	0 	0 4.09835e-13 	-6.94232e-35 	-7.58592e-14 0 	0 	0 2.32465e-13 	6.18445e-33 	-3.91798e-14 0 	0 	0 1.71214e-13 	-6.27644e-35 	-2.64402e-14 0 	0 	0 3.21129e-13 	-4.43855e-33 	-4.62697e-14 0 	0 	0 0 	0 	0 0 	0 	0 2.18225e-13 	4.11453e-33 	-2.49249e-14 0 	0 	0 0 	0 	0 0 	0 	0 -2.96954e-13 	0 	2.56852e-14 0 	0 	0 2.4051e-13 	0 	-1.83185e-14 0 	0 	0 -2.89485e-13 	3.22556e-33 	1.76194e-14 0 	0 	0 2.57525e-13 	2.65222e-33 	-1.28884e-14 0 	0 	0 4.21828e-14 	3.2095e-35 	-1.73152e-15 0 	0 	0 -2.73779e-13 	-4.6276e-34 	7.56917e-15 0 	0 	0 5.29329e-15 	-2.11538e-38 	-1.10733e-16 0 	0 	0
-4.21619e-13 	2.39541e-33 	1.39091e-13 -4.12649e-13 	2.34444e-33 	1.36131e-13 0 	0 	0 -4.17879e-13 	4.34937e-34 	1.30764e-13 0 	0 	0 -4.14045e-13 	-1.44249e-34 	1.21999e-13 0 	0 	0 -2.95648e-13 	-1.21806e-35 	8.26173e-14 0 	0 	0 1.75381e-13 	4.59253e-36 	-4.64149e-14 0 	0 	0 -2.96786e-13 	7.65062e-36 	7.43702e-14 0 	0 	0 3.00509e-13 	5.71635e-34 	-7.11615e-14 0 	0 	0 -9.80228e-14 	5.28946e-37 	2.17126e-14 0 	0 	0 9.86293e-14 	-8.00377e-34 	-2.04439e-14 0 	0 	0 2.17444e-13 	-1.87905e-33 	-4.25664e-14 0 	0 	0 4.09835e-13 	-6.94232e-35 	-7.58592e-14 0 	0 	0 2.32465e-13 	6.18445e-33 	-3.91798e-14 0 	0 	0 1.71214e-13 	-6.27644e-35 	-2.64402e-14 0 	0 	0 3.21129e-13 	-4.43855e-33 	-4.62697e-14 0 	0 	0 0 	0 	0 0 	0 	0 2.18225e-13 	4.11453e-33 	-2.49249e-14 0 	0 	0 0 	0 	0 0 	0 	0 -2.96954e-13 	0 	2.56852e-14 0 	0 	0 2.4051e-13 	0 	-1.83185e-14 0 	0 	0 -2.89485e-13 	3.22556e-33 	1.76194e-14 0 	0 	0 2.57525e-13 	2.65222e-33 	-1.28884e-14 0 	0 	0 4.21828e-14 	3.2095e-35 	-1.73152e-15 0 	0 	0 -2.73779e-13 	-4.6276e-34 	7.56917e-15 0 	0 	0 5.29329e-15 	-2.11538e-38 	-1.10733e-16 0 	0 	0 9.37842e-15 	0 	-1.17509e-16 0 	0 	0
-4.22471e-13 	4.39716e-34 	1.32201e-13 -4.17879e-13 	4.34937e-34 	1.30764e-13 0 	0 	0 -4.14045e-13 	-1.44249e-34 	1.21999e-13 0 	0 	0 -2.95648e-13 	-1.21806e-35 	8.26173e-14 0 	0 	0 1.75381e-13 	4.59253e-36 	-4.64149e-14 0 	0 	0 -2.96786e-13 	7.65062e-36 	7.43702e-14 0 	0 	0 3.00509e-13 	5.71635e-34 	-7.11615e-14 0 	0 	0 -9.80228e-14 	5.28946e-37 	2.17126e-14 0 	0 	0 9.86293e-14 	-8.00377e-34 	-2.04439e-14 0 	0 	0 2.17444e-13 	-1.87905e-33 	-4.25664e-14 0 	0 	0 4.09835e-13 	-6.94232e-35 	-7.58592e-14 0 	0 	0 2.32465e-13 	6.18445e-33 	-3.91798e-14 0 	0 	0 1.71214e-13 	-6.27644e-35 	-2.64402e-14 0 	0 	0 3.21129e-13 	-4.43855e-33 	-4.62697e-14 0 	0 	0 0 	0 	0 0 	0 	0 2.18225e-13 	4.11453e-33 	-2.49249e-14 0 	0 	0 0 	0 	0 0 	0 	0 -2.96954e-13 	0 	2.56852e-14 0 	0 	0 2.4051e-13 	0 	-1.83185e-14 0 	0 	0 -2.89485e-13 	3.22556e-33 	1.76194e-14 0 	0 	0 2.57525e-13 	2.65222e-33 	-1.28884e-14 0 	0 	0 4.21828e-14 	3.2095e-35 	-1.73152e-15 0 	0 	0 -2.73779e-13 	-4.6276e-34 	7.56917e-15 0 	0 	0 5.29329e-15 	-2.11538e-38 	-1.10733e-16 0 	0 	0 9.37842e-15 	0 	-1.17509e-16 0 	0 	0 2.83837e-13 	-4.19651e-33 	-3.51029e-16 0 	0 	0
-2.79131e-14 	-9.72467e-36 	8.22464e-15 0 	0 	0 2.8157e-13 	1.16006e-35 	-7.86832e-14 0 	0 	0 -1.70641e-13 	-4.4684e-36 	4.51605e-14 0 	0 	0 3.0636e-13 	-7.89741e-36 	-7.67692e-14 0 	0 	0 -3.10203e-13 	-5.90075e-34 	7.34571e-14 0 	0 	0 1.17627e-13 	-6.34735e-37 	-2.60551e-14 0 	0 	0 -9.86293e-14 	8.00377e-34 	2.04439e-14 0 	0 	0 -2.17444e-13 	1.87905e-33 	4.25664e-14 0 	0 	0 -3.99839e-13 	6.77299e-35 	7.4009e-14 0 	0 	0 -4.85144e-13 	-1.29067e-32 	8.17665e-14 0 	0 	0 -2.01428e-13 	7.38405e-35 	3.11061e-14 0 	0 	0 -3.01059e-13 	4.16114e-33 	4.33778e-14 0 	0 	0 0 	0 	0 0 	0 	0 -2.18225e-13 	-4.11453e-33 	2.49249e-14 0 	0 	0 0 	0 	0 0 	0 	0 3.06533e-13 	0 	-2.65138e-14 0 	0 	0 -2.35794e-13 	0 	1.79593e-14 0 	0 	0 2.87169e-13 	-3.19975e-33 	-1.74784e-14 0 	0 	0 -3.29813e-13 	-3.3967e-33 	1.65062e-14 0 	0 	0 -3.99626e-14 	-3.04057e-35 	1.64038e-15 0 	0 	0 2.73779e-13 	4.6276e-34 	-7.56917e-15 0 	0 	0 -4.76396e-15 	1.90384e-38 	9.96599e-17 0 	0 	0 -1.04205e-14 	0 	1.30566e-16 0 	0 	0 -2.85879e-13 	4.2267e-33 	3.53555e-16 0 	0 	0 2.80197e-13 	-2.57889e-34 	1.68644e-15 0 	0 	0
-2.95648e-13 	-1.21806e-35 	8.26173e-14 0 	0 	0 -1.70641e-13 	-4.4684e-36 	4.51605e-14 0 	0 	0 3.0636e-13 	-7.89741e-36 	-7.67692e-14 0 	0 	0 -3.10203e-13 	-5.90075e-34 	7.34571e-14 0 	0 	0 1.17627e-13 	-6.34735e-37 	-2.60551e-14 0 	0 	0 -9.86293e-14 	8.00377e-34 	2.04439e-14 0 	0 	0 -2.17444e-13 	1.87905e-33 	4.25664e-14 0 	0 	0 -3.99839e-13 	6.77299e-35 	7.4009e-14 0 	0 	0 -4.85144e-13 	-1.29067e-32 	8.17665e-14 0 	0 	0 -2.01428e-13 	7.38405e-35 	3.11061e-14 0 	0 	0 -3.01059e-13 	4.16114e-33 	4.33778e-14 0 	0 	0 0 	0 	0 0 	0 	0 -2.18225e-13 	-4.11453e-33 	2.49249e-14 0 	0 	0 0 	0 	0 0 	0 	0 3.06533e-13 	0 	-2.65138e-14 0 	0 	0 -2.35794e-13 	0 	1.79593e-14 0 	0 	0 2.87169e-13 	-3.19975e-33 	-1.74784e-14 0 	0 	0 -3.29813e-13 	-3.3967e-33 	1.65062e-14 0 	0 	0 -3.99626e-14 	-3.04057e-35 	1.64038e-15 0 	0 	0 2.73779e-13 	4.6276e-34 	-7.56917e-15 0 	0 	0 -4.76396e-15 	1.90384e-38 	9.96599e-17 0 	0 	0 -1.04205e-14 	0 	1.30566e-16 0 	0 	0 -2.85879e-13 	4.2267e-33 	3.53555e-16 0 	0 	0 2.80197e-13 	-2.57889e-34 	1.68644e-15 0 	0 	0 0 	0 	0 0 	0 	0
-3.50762e-13 	-9.18505e-36 	9.28298e-14 0 	0 	0 3.0636e-13 	-7.89741e-36 	-7.67692e-14 0 	0 	0 -3.10203e-13 	-5.90075e-34 	7.34571e-14 0 	0 	0 1.17627e-13 	-6.34735e-37 	-2.60551e-14 0 	0 	0 -9.86293e-14 	8.00377e-34 	2.04439e-14 0 	0 	0 -2.17444e-13 	1.87905e-33 	4.25664e-14 0 	0 	0 -3.99839e-13 	6.77299e-35 	7.4009e-14 0 	0 	0 -4.85144e-13 	-1.29067e-32 	8.17665e-14 0 	0 	0 -2.01428e-13 	7.38405e-35 	3.11061e-14 0 	0 	0 -3.01059e-13 	4.16114e-33 	4.33778e-14 0 	0 	0 0 	0 	0 0 	0 	0 -2.18225e-13 	-4.11453e-33 	2.49249e-14 0 	0 	0 0 	0 	0 0 	0 	0 3.06533e-13 	0 	-2.65138e-14 0 	0 	0 -2.35794e-13 	0 	1.79593e-14 0 	0 	0 2.87169e-13 	-3.19975e-33 	-1.74784e-14 0 	0 	0 -3.29813e-13 	-3.3967e-33 	1.65062e-14 0 	0 	0 -3.99626e-14 	-3.04057e-35 	1.64038e-15 0 	0 	0 2.73779e-13 	4.6276e-34 	-7.56917e-15 0 	0 	0 -4.76396e-15 	1.90384e-38 	9.96599e-17 0 	0 	0 -1.04205e-14 	0 	1.30566e-16 0 	0 	0 -2.85879e-13 	4.2267e-33 	3.53555e-16 0 	0 	0 2.80197e-13 	-2.57889e-34 	1.68644e-15 0 	0 	0 0 	0 	0 0 	0 	0 -6.09664e-14 	-1.75699e-33 	-1.25896e-15 0 	0 	0
4.78687e-14 	-1.23397e-36 	-1.19952e-14 0 	0 	0 -3.10203e-13 	-5.90075e-34 	7.34571e-14 0 	0 	0 1.17627e-13 	-6.34735e-37 	-2.60551e-14 0 	0 	0 -9.86293e-14 	8.00377e-34 	2.04439e-14 0 	0 	0 -2.17444e-13 	1.87905e-33 	4.25664e-14 0 	0 	0 -3.99839e-13 	6.77299e-35 	7.4009e-14 0 	0 	0 -4.85144e-13 	-1.29067e-32 	8.17665e-14 0 	0 	0 -2.01428e-13 	7.38405e-35 	3.11061e-14 0 	0 	0 -3.01059e-13 	4.16114e-33 	4.33778e-14 0 	0 	0 0 	0 	0 0 	0 	0 -2.18225e-13 	-4.11453e-33 	2.49249e-14 0 	0 	0 0 	0 	0 0 	0 	0 3.06533e-13 	0 	-2.65138e-14 0 	0 	0 -2.35794e-13 	0 	1.79593e-14 0 	0 	0 2.87169e-13 	-3.19975e-33 	-1.74784e-14 0 	0 	0 -3.29813e-13 	-3.3967e-33 	1.65062e-14 0 	0 	0 -3.99626e-14 	-3.04057e-35 	1.64038e-15 0 	0 	0 2.73779e-13 	4.6276e-34 	-7.56917e-15 0 	0 	0 -4.76396e-15 	1.90384e-38 	9.96599e-17 0 	0 	0 -1.04205e-14 	0 	1.30566e-16 0 	0 	0 -2.85879e-13 	4.2267e-33 	3.53555e-16 0 	0 	0 2.80197e-13 	-2.57889e-34 	1.68644e-15 0 	0 	0 0 	0 	0 0 	0 	0 -6.09664e-14 	-1.75699e-33 	-1.25896e-15 0 	0 	0 -1.66001e-13 	-3.1205e-34 	-3.95326e-15 0 	0 	0
3.00509e-13 	5.71635e-34 	-7.11615e-14 0 	0 	0 1.17627e-13 	-6.34735e-37 	-2.60551e-14 0 	0 	0 -9.86293e-14 	8.00377e-34 	2.04439e-14 0 	0 	0 -2.17444e-13 	1.87905e-33 	4.25664e-14 0 	0 	0 -3.99839e-13 	6.77299e-35 	7.4009e-14 0 	0 	0 -4.85144e-13 	-1.29067e-32 	8.17665e-14 0 	0 	0 -2.01428e-13 	7.38405e-35 	3.11061e-14 0 	0 	0 -3.01059e-13 	4.16114e-33 	4.33778e-14 0 	0 	0 0 	0 	0 0 	0 	0 -2.18225e-13 	-4.11453e-33 	2.49249e-14 0 	0 	0 0 	0 	0 0 	0 	0 3.06533e-13 	0 	-2.65138e-14 0 	0 	0 -2.35794e-13 	0 	1.79593e-14 0 	0 	0 2.87169e-13 	-3.19975e-33 	-1.74784e-14 0 	0 	0 -3.29813e-13 	-3.3967e-33 	1.65062e-14 0 	0 	0 -3.99626e-14 	-3.04057e-35 	1.64038e-15 0 	0 	0 2.73779e-13 	4.6276e-34 	-7.56917e-15 0 	0 	0 -4.76396e-15 	1.90384e-38 	9.96599e-17 0 	0 	0 -1.04205e-14 	0 	1.30566e-16 0 	0 	0 -2.85879e-13 	4.2267e-33 	3.53555e-16 0 	0 	0 2.80197e-13 	-2.57889e-34 	1.68644e-15 0 	0 	0 0 	0 	0 0 	0 	0 -6.09664e-14 	-1.75699e-33 	-1.25896e-15 0 	0 	0 -1.66001e-13 	-3.1205e-34 	-3.95326e-15 0 	0 	0 3.06625e-13 	-9.92236e-33 	9.77977e-15 0 	0 	0
-9.80228e-14 	5.28946e-37 	2.17126e-14 0 	0 	0 -9.86293e-14 	8.00377e-34 	2.04439e-14 0 	0 	0 -2.17444e-13 	1.87905e-33 	4.25664e-14 0 	0 	0 -3.99839e-13 	6.77299e-35 	7.4009e-14 0 	0 	0 -4.85144e-13 	-1.29067e-32 	8.17665e-14 0 	0 	0 -2.01428e-13 	7.38405e-35 	3.11061e-14 0 	0 	0 -3.01059e-13 	4.16114e-33 	4.33778e-14 0 	0 	0 0 	0 	0 0 	0 	0 -2.18225e-13 	-4.11453e-33 	2.49249e-14 0 	0 	0 0 	0 	0 0 	0 	0 3.06533e-13 	0 	-2.65138e-14 0 	0 	0 -2.35794e-13 	0 	1.79593e-14 0 	0 	0 2.87169e-13 	-3.19975e-33 	-1.74784e-14 0 	0 	0 -3.29813e-13 	-3.3967e-33 	1.65062e-14 0 	0 	0 -3.99626e-14 	-3.04057e-35 	1.64038e-15 0 	0 	0 2.73779e-13 	4.6276e-34 	-7.56917e-15 0 	0 	0 -4.76396e-15 	1.90384e-38 	9.96599e-17 0 	0 	0 -1.04205e-14 	0 	1.30566e-16 0 	0 	0 -2.85879e-13 	4.2267e-33 	3.53555e-16 0 	0 	0 2.80197e-13 	-2.57889e-34 	1.68644e-15 0 	0 	0 0 	0 	0 0 	0 	0 -6.09664e-14 	-1.75699e-33 	-1.25896e-15 0 	0 	0 -1.66001e-13 	-3.1205e-34 	-3.95326e-15 0 	0 	0 3.06625e-13 	-9.92236e-33 	9.77977e-15 0 	0 	0 8.86112e-14 	0 	3.40571e-15 0 	0 	0
-8.28487e-13 	6.72317e-33 	1.71729e-13 0 	0 	0 -2.17444e-13 	1.87905e-33 	4.25664e-14 0 	0 	0 -3.99839e-13 	6.77299e-35 	7.4009e-14 0 	0 	0 -4.85144e-13 	-1.29067e-32 	8.17665e-14 0 	0 	0 -2.01428e-13 	7.38405e-35 	3.11061e-14 0 	0 	0 -3.01059e-13 	4.16114e-33 	4.33778e-14 0 	0 	0 0 	0 	0 0 	0 	0 -2.18225e-13 	-4.11453e-33 	2.49249e-14 0 	0 	0 0 	0 	0 0 	0 	0 3.06533e-13 	0 	-2.65138e-14 0 	0 	0 -2.35794e-13 	0 	1.79593e-14 0 	0 	0 2.87169e-13 	-3.19975e-33 	-1.74784e-14 0 	0 	0 -3.29813e-13 	-3.3967e-33 	1.65062e-14 0 	0 	0 -3.99626e-14 	-3.04057e-35 	1.64038e-15 0 	0 	0 2.73779e-13 	4.6276e-34 	-7.56917e-15 0 	0 	0 -4.76396e-15 	1.90384e-38 	9.96599e-17 0 	0 	0 -1.04205e-14 	0 	1.30566e-16 0 	0 	0 -2.85879e-13 	4.2267e-33 	3.53555e-16 0 	0 	0 2.80197e-13 	-2.57889e-34 	1.68644e-15 0 	0 	0 0 	0 	0 0 	0 	0 -6.09664e-14 	-1.75699e-33 	-1.25896e-15 0 	0 	0 -1.66001e-13 	-3.1205e-34 	-3.95326e-15 0 	0 	0 3.06625e-13 	-9.92236e-33 	9.77977e-15 0 	0 	0 8.86112e-14 	0 	3.40571e-15 0 	0 	0 1.30877e-13 	-3.9241e-33 	5.89733e-15 0 	0 	0
-7.11634e-13 	6.14961e-33 	1.39308e-13 0 	0 	0 -3.99839e-13 	6.77299e-35 	7.4009e-14 0 	0 	0 -4.85144e-13 	-1.29067e-32 	8.17665e-14 0 	0 	0 -2.01428e-13 	7.38405e-35 	3.11061e-14 0 	0 	0 -3.01059e-13 	4.16114e-33 	4.33778e-14 0 	0 	0 0 	0 	0 0 	0 	0 -2.18225e-13 	-4.11453e-33 	2.49249e-14 0 	0 	0 0 	0 	0 0 	0 	0 3.06533e-13 	0 	-2.65138e-14 0 	0 	0 -2.35794e-13 	0 	1.79593e-14 0 	0 	0 2.87169e-13 	-3.19975e-33 	-1.74784e-14 0 	0 	0 -3.29813e-13 	-3.3967e-33 	1.65062e-14 0 	0 	0 -3.99626e-14 	-3.04057e-35 	1.64038e-15 0 	0 	0 2.73779e-13 	4.6276e-34 	-7.56917e-15 0 	0 	0 -4.76396e-15 	1.90384e-38 	9.96599e-17 0 	0 	0 -1.04205e-14 	0 	1.30566e-16 0 	0 	0 -2.85879e-13 	4.2267e-33 	3.53555e-16 0 	0 	0 2.80197e-13 	-2.57889e-34 	1.68644e-15 0 	0 	0 0 	0 	0 0 	0 	0 -6.09664e-14 	-1.75699e-33 	-1.25896e-15 0 	0 	0 -1.66001e-13 	-3.1205e-34 	-3.95326e-15 0 	0 	0 3.06625e-13 	-9.92236e-33 	9.77977e-15 0 	0 	0 8.86112e-14 	0 	3.40571e-15 0 	0 	0 1.30877e-13 	-3.9241e-33 	5.89733e-15 0 	0 	0 -3.11161e-13 	8.7373e-33 	-1.49949e-14 0 	0 	0
-5.39783e-13 	9.14354e-35 	9.99122e-14 0 	0 	0 -4.85144e-13 	-1.29067e-32 	8.17665e-14 0 	0 	0 -2.01428e-13 	7.38405e-35 	3.11061e-14 0 	0 	0 -3.01059e-13 	4.16114e-33 	4.33778e-14 0 	0 	0 0 	0 	0 0 	0 	0 -2.18225e-13 	-4.11453e-33 	2.49249e-14 0 	0 	0 0 	0 	0 0 	0 	0 3.06533e-13 	0 	-2.65138e-14 0 	0 	0 -2.35794e-13 	0 	1.79593e-14 0 	0 	0 2.87169e-13 	-3.19975e-33 	-1.74784e-14 0 	0 	0 -3.29813e-13 	-3.3967e-33 	1.65062e-14 0 	0 	0 -3.99626e-14 	-3.04057e-35 	1.64038e-15 0 	0 	0 2.73779e-13 	4.6276e-34 	-7.56917e-15 0 	0 	0 -4.76396e-15 	1.90384e-38 	9.96599e-17 0 	0 	0 -1.04205e-14 	0 	1.30566e-16 0 	0 	0 -2.85879e-13 	4.2267e-33 	3.53555e-16 0 	0 	0 2.80197e-13 	-2.57889e-34 	1.68644e-15 0 	0 	0 0 	0 	0 0 	0 	0 -6.09664e-14 	-1.75699e-33 	-1.25896e-15 0 	0 	0 -1.66001e-13 	-3.1205e-34 	-3.95326e-15 0 	0 	0 3.06625e-13 	-9.92236e-33 	9.77977e-15 0 	0 	0 8.86112e-14 	0 	3.40571e-15 0 	0 	0 1.30877e-13 	-3.9241e-33 	5.89733e-15 0 	0 	0 -3.11161e-13 	8.7373e-33 	-1.49949e-14 0 	0 	0 3.25363e-13 	-9.12806e-33 	1.74408e-14 0 	0 	0
-2.32465e-13 	-6.18445e-33 	3.91798e-14 0 	0 	0 -2.01428e-13 	7.38405e-35 	3.11061e-14 0 	0 	0 -3.01059e-13 	4.16114e-33 	4.33778e-14 0 	0 	0 0 	0 	0 0 	0 	0 -2.18225e-13 	-4.11453e-33 	2.49249e-14 0 	0 	0 0 	0 	0 0 	0 	0 3.06533e-13 	0 	-2.65138e-14 0 	0 	0 -2.35794e-13 	0 	1.79593e-14 0 	0 	0 2.87169e-13 	-3.19975e-33 	-1.74784e-14 0 	0 	0 -3.29813e-13 	-3.3967e-33 	1.65062e-14 0 	0 	0 -3.99626e-14 	-3.04057e-35 	1.64038e-15 0 	0 	0 2.73779e-13 	4.6276e-34 	-7.56917e-15 0 	0 	0 -4.76396e-15 	1.90384e-38 	9.96599e-17 0 	0 	0 -1.04205e-14 	0 	1.30566e-16 0 	0 	0 -2.85879e-13 	4.2267e-33 	3.53555e-16 0 	0 	0 2.80197e-13 	-2.57889e-34 	1.68644e-15 0 	0 	0 0 	0 	0 0 	0 	0 -6.09664e-14 	-1.75699e-33 	-1.25896e-15 0 	0 	0 -1.66001e-13 	-3.1205e-34 	-3.95326e-15 0 	0 	0 3.06625e-13 	-9.92236e-33 	9.77977e-15 0 	0 	0 8.86112e-14 	0 	3.40571e-15 0 	0 	0 1.30877e-13 	-3.9241e-33 	5.89733e-15 0 	0 	0 -3.11161e-13 	8.7373e-33 	-1.49949e-14 0 	0 	0 3.25363e-13 	-9.12806e-33 	1.74408e-14 0 	0 	0 -3.32119e-13 	-1.76755e-32 	-1.93572e-14 0 	0 	0
-3.72642e-13 	1.36605e-34 	5.75462e-14 0 	0 	0 -3.01059e-13 	4.16114e-33 	4.33778e-14 0 	0 	0 0 	0 	0 0 	0 	0 -2.18225e-13 	-4.11453e-33 	2.49249e-14 0 	0 	0 0 	0 	0 0 	0 	0 3.06533e-13 	0 	-2.65138e-14 0 	0 	0 -2.35794e-13 	0 	1.79593e-14 0 	0 	0 2.87169e-13 	-3.19975e-33 	-1.74784e-14 0 	0 	0 -3.29813e-13 	-3.3967e-33 	1.65062e-14 0 	0 	0 -3.99626e-14 	-3.04057e-35 	1.64038e-15 0 	0 	0 2.73779e-13 	4.6276e-34 	-7.56917e-15 0 	0 	0 -4.76396e-15 	1.90384e-38 	9.96599e-17 0 	0 	0 -1.04205e-14 	0 	1.30566e-16 0 	0 	0 -2.85879e-13 	4.2267e-33 	3.53555e-16 0 	0 	0 2.80197e-13 	-2.57889e-34 	1.68644e-15 0 	0 	0 0 	0 	0 0 	0 	0 -6.09664e-14 	-1.75699e-33 	-1.25896e-15 0 	0 	0 -1.66001e-13 	-3.1205e-34 	-3.95326e-15 0 	0 	0 3.06625e-13 	-9.92236e-33 	9.77977e-15 0 	0 	0 8.86112e-14 	0 	3.40571e-15 0 	0 	0 1.30877e-13 	-3.9241e-33 	5.89733e-15 0 	0 	0 -3.11161e-13 	8.7373e-33 	-1.49949e-14 0 	0 	0 3.25363e-13 	-9.12806e-33 	1.74408e-14 0 	0 	0 -3.32119e-13 	-1.76755e-32 	-1.93572e-14 0 	0 	0 -2.16487e-13 	-8.80319e-35 	-1.35297e-14 0 	0 	0
7.22541e-13 	-9.98673e-33 	-1.04107e-13 0 	0 	0 0 	0 	0 0 	0 	0 -2.18225e-13 	-4.11453e-33 	2.49249e-14 0 	0 	0 0 	0 	0 0 	0 	0 3.06533e-13 	0 	-2.65138e-14 0 	0 	0 -2.35794e-13 	0 	1.79593e-14 0 	0 	0 2.87169e-13 	-3.19975e-33 	-1.74784e-14 0 	0 	0 -3.29813e-13 	-3.3967e-33 	1.65062e-14 0 	0 	0 -3.99626e-14 	-3.04057e-35 	1.64038e-15 0 	0 	0 2.73779e-13 	4.6276e-34 	-7.56917e-15 0 	0 	0 -4.76396e-15 	1.90384e-38 	9.96599e-17 0 	0 	0 -1.04205e-14 	0 	1.30566e-16 0 	0 	0 -2.85879e-13 	4.2267e-33 	3.53555e-16 0 	0 	0 2.80197e-13 	-2.57889e-34 	1.68644e-15 0 	0 	0 0 	0 	0 0 	0 	0 -6.09664e-14 	-1.75699e-33 	-1.25896e-15 0 	0 	0 -1.66001e-13 	-3.1205e-34 	-3.95326e-15 0 	0 	0 3.06625e-13 	-9.92236e-33 	9.77977e-15 0 	0 	0 8.86112e-14 	0 	3.40571e-15 0 	0 	0 1.30877e-13 	-3.9241e-33 	5.89733e-15 0 	0 	0 -3.11161e-13 	8.7373e-33 	-1.49949e-14 0 	0 	0 3.25363e-13 	-9.12806e-33 	1.74408e-14 0 	0 	0 -3.32119e-13 	-1.76755e-32 	-1.93572e-14 0 	0 	0 -2.16487e-13 	-8.80319e-35 	-1.35297e-14 0 	0 	0 1.87821e-13 	9.03602e-33 	1.25053e-14 0 	0 	0
0 	0 	0 0 	0 	0 -2.18225e-13 	-4.11453e-33 	2.49249e-14 0 	0 	0 0 	0 	0 0 	0 	0 3.06533e-13 	0 	-2.65138e-14 0 	0 	0 -2.35794e-13 	0 	1.79593e-14 0 	0 	0 2.87169e-13 	-3.19975e-33 	-1.74784e-14 0 	0 	0 -3.29813e-13 	-3.3967e-33 	1.65062e-14 0 	0 	0 -3.99626e-14 	-3.04057e-35 	1.64038e-15 0 	0 	0 2.73779e-13 	4.6276e-34 	-7.56917e-15 0 	0 	0 -4.76396e-15 	1.90384e-38 	9.96599e-17 0 	0 	0 -1.04205e-14 	0 	1.30566e-16 0 	0 	0 -2.85879e-13 	4.2267e-33 	3.53555e-16 0 	0 	0 2.80197e-13 	-2.57889e-34 	1.68644e-15 0 	0 	0 0 	0 	0 0 	0 	0 -6.09664e-14 	-1.75699e-33 	-1.25896e-15 0 	0 	0 -1.66001e-13 	-3.1205e-34 	-3.95326e-15 0 	0 	0 3.06625e-13 	-9.92236e-33 	9.77977e-15 0 	0 	0 8.86112e-14 	0 	3.40571e-15 0 	0 	0 1.30877e-13 	-3.9241e-33 	5.89733e-15 0 	0 	0 -3.11161e-13 	8.7373e-33 	-1.49949e-14 0 	0 	0 3.25363e-13 	-9.12806e-33 	1.74408e-14 0 	0 	0 -3.32119e-13 	-1.76755e-32 	-1.93572e-14 0 	0 	0 -2.16487e-13 	-8.80319e-35 	-1.35297e-14 0 	0 	0 1.87821e-13 	9.03602e-33 	1.25053e-14 0 	0 	0 -2.88825e-14 	-1.3349e-33 	-2.04694e-15 0 	0 	0
-7.1419e-13 	-1.34657e-32 	8.15724e-14 0 	0 	0 0 	0 	0 0 	0 	0 3.06533e-13 	0 	-2.65138e-14 0 	0 	0 -2.35794e-13 	0 	1.79593e-14 0 	0 	0 2.87169e-13 	-3.19975e-33 	-1.74784e-14 0 	0 	0 -3.29813e-13 	-3.3967e-33 	1.65062e-14 0 	0 	0 -3.99626e-14 	-3.04057e-35 	1.64038e-15 0 	0 	0 2.73779e-13 	4.6276e-34 	-7.56917e-15 0 	0 	0 -4.76396e-15 	1.90384e-38 	9.96599e-17 0 	0 	0 -1.04205e-14 	0 	1.30566e-16 0 	0 	0 -2.85879e-13 	4.2267e-33 	3.53555e-16 0 	0 	0 2.80197e-13 	-2.57889e-34 	1.68644e-15 0 	0 	0 0 	0 	0 0 	0 	0 -6.09664e-14 	-1.75699e-33 	-1.25896e-15 0 	0 	0 -1.66001e-13 	-3.1205e-34 	-3.95326e-15 0 	0 	0 3.06625e-13 	-9.92236e-33 	9.77977e-15 0 	0 	0 8.86112e-14 	0 	3.40571e-15 0 	0 	0 1.30877e-13 	-3.9241e-33 	5.89733e-15 0 	0 	0 -3.11161e-13 	8.7373e-33 	-1.49949e-14 0 	0 	0 3.25363e-13 	-9.12806e-33 	1.74408e-14 0 	0 	0 -3.32119e-13 	-1.76755e-32 	-1.93572e-14 0 	0 	0 -2.16487e-13 	-8.80319e-35 	-1.35297e-14 0 	0 	0 1.87821e-13 	9.03602e-33 	1.25053e-14 0 	0 	0 -2.88825e-14 	-1.3349e-33 	-2.04694e-15 0 	0 	0 -2.31613e-13 	1.54898e-34 	-1.70029e-14 0 	0 	0
-6.745e-13 	-4.97961e-32 	6.85531e-14 0 	0 	0 3.06533e-13 	0 	-2.65138e-14 0 	0 	0 -2.35794e-13 	0 	1.79593e-14 0 	0 	0 2.87169e-13 	-3.19975e-33 	-1.74784e-14 0 	0 	0 -3.29813e-13 	-3.3967e-33 	1.65062e-14 0 	0 	0 -3.99626e-14 	-3.04057e-35 	1.64038e-15 0 	0 	0 2.73779e-13 	4.6276e-34 	-7.56917e-15 0 	0 	0 -4.76396e-15 	1.90384e-38 	9.96599e-17 0 	0 	0 -1.04205e-14 	0 	1.30566e-16 0 	0 	0 -2.85879e-13 	4.2267e-33 	3.53555e-16 0 	0 	0 2.80197e-13 	-2.57889e-34 	1.68644e-15 0 	0 	0 0 	0 	0 0 	0 	0 -6.09664e-14 	-1.75699e-33 	-1.25896e-15 0 	0 	0 -1.66001e-13 	-3.1205e-34 	-3.95326e-15 0 	0 	0 3.06625e-13 	-9.92236e-33 	9.77977e-15 0 	0 	0 8.86112e-14 	0 	3.40571e-15 0 	0 	0 1.30877e-13 	-3.9241e-33 	5.89733e-15 0 	0 	0 -3.11161e-13 	8.7373e-33 	-1.49949e-14 0 	0 	0 3.25363e-13 	-9.12806e-33 	1.74408e-14 0 	0 	0 -3.32119e-13 	-1.76755e-32 	-1.93572e-14 0 	0 	0 -2.16487e-13 	-8.80319e-35 	-1.35297e-14 0 	0 	0 1.87821e-13 	9.03602e-33 	1.25053e-14 0 	0 	0 -2.88825e-14 	-1.3349e-33 	-2.04694e-15 0 	0 	0 -2.31613e-13 	1.54898e-34 	-1.70029e-14 0 	0 	0 0 	0 	0 0 	0 	0