# vtk DataFile Version 2.0
track0
ASCII
DATASET POLYDATA
POINTS 8676 float
0.0634193 -0.333333 -0.266338
0.0643872 -0.333333 -0.268059
0.065452 -0.333333 -0.269904
0.0675815 -0.333333 -0.273595
0.0687567 -0.333333 -0.275545
0.0711071 -0.333333 -0.279444
0.0724055 -0.333333 -0.281485
0.0750023 -0.333333 -0.285568
0.0764327 -0.333333 -0.287728
0.0792933 -0.333333 -0.292048
0.0808709 -0.333333 -0.29431
0.0840261 -0.333333 -0.298833
0.0857647 -0.333333 -0.301203
0.089242 -0.333333 -0.305944
0.0911575 -0.333333 -0.308422
0.0949885 -0.333333 -0.31338
0.0971013 -0.333333 -0.315937
0.101327 -0.333333 -0.321051
0.103655 -0.333333 -0.323685
0.108313 -0.333333 -0.328954
0.110879 -0.333333 -0.331656
0.116011 -0.333333 -0.33706
0.118834 -0.333333 -0.339876
0.124479 -0.333333 -0.34551
0.127592 -0.333333 -0.34832
0.133819 -0.333333 -0.353941
0.13725 -0.333333 -0.35673
0.144112 -0.333333 -0.362308
0.147887 -0.333333 -0.365139
0.155438 -0.333333 -0.370802
0.159597 -0.333333 -0.373566
0.167915 -0.333333 -0.379095
0.172496 -0.333333 -0.381718
0.181658 -0.333333 -0.386964
0.1867 -0.333333 -0.389493
0.196783 -0.333333 -0.394549
0.202124 -0.333333 -0.396725
0.212805 -0.333333 -0.401077
0.218145 -0.333333 -0.402968
0.228826 -0.333333 -0.40675
0.234171 -0.333333 -0.408169
0.24486 -0.333333 -0.411007
0.250205 -0.333333 -0.41213
0.260896 -0.333333 -0.414376
0.266242 -0.333333 -0.415219
0.276934 -0.333333 -0.416904
0.282281 -0.333333 -0.417364
0.292974 -0.333333 -0.418284
0.298321 -0.333333 -0.418549
0.309015 -0.333333 -0.419078
0.0665167 -0.333333 -0.27175
0.0675815 -0.333333 -0.273595
0.0687567 -0.333333 -0.275545
0.0711071 -0.333333 -0.279444
0.0724055 -0.333333 -0.281485
0.0750023 -0.333333 -0.285568
0.0764327 -0.333333 -0.287728
0.0792933 -0.333333 -0.292048
0.0808709 -0.333333 -0.29431
0.0840261 -0.333333 -0.298833
0.0857647 -0.333333 -0.301203
0.089242 -0.333333 -0.305944
0.0911575 -0.333333 -0.308422
0.0949885 -0.333333 -0.31338
0.0971013 -0.333333 -0.315937
0.101327 -0.333333 -0.321051
0.103655 -0.333333 -0.323685
0.108313 -0.333333 -0.328954
0.110879 -0.333333 -0.331656
0.116011 -0.333333 -0.33706
0.118834 -0.333333 -0.339876
0.124479 -0.333333 -0.34551
0.127592 -0.333333 -0.34832
0.133819 -0.333333 -0.353941
0.13725 -0.333333 -0.35673
0.144112 -0.333333 -0.362308
0.147887 -0.333333 -0.365139
0.155438 -0.333333 -0.370802
0.159597 -0.333333 -0.373566
0.167915 -0.333333 -0.379095
0.172496 -0.333333 -0.381718
0.181658 -0.333333 -0.386964
0.1867 -0.333333 -0.389493
0.196783 -0.333333 -0.394549
0.202124 -0.333333 -0.396725
0.212805 -0.333333 -0.401077
0.218145 -0.333333 -0.402968
0.228826 -0.333333 -0.40675
0.234171 -0.333333 -0.408169
0.24486 -0.333333 -0.411007
0.250205 -0.333333 -0.41213
0.260896 -0.333333 -0.414376
0.266242 -0.333333 -0.415219
0.276934 -0.333333 -0.416904
0.282281 -0.333333 -0.417364
0.292974 -0.333333 -0.418284
0.298321 -0.333333 -0.418549
0.309015 -0.333333 -0.419078
0.314361 -0.333333 -0.419083
0.325055 -0.333333 -0.419091
0.0699319 -0.333333 -0.277494
0.0711071 -0.333333 -0.279444
0.0724055 -0.333333 -0.281485
0.0750023 -0.333333 -0.285568
0.0764327 -0.333333 -0.287728
0.0792933 -0.333333 -0.292048
0.0808709 -0.333333 -0.29431
0.0840261 -0.333333 -0.298833
0.0857647 -0.333333 -0.301203
0.089242 -0.333333 -0.305944
0.0911575 -0.333333 -0.308422
0.0949885 -0.333333 -0.31338
0.0971013 -0.333333 -0.315937
0.101327 -0.333333 -0.321051
0.103655 -0.333333 -0.323685
0.108313 -0.333333 -0.328954
0.110879 -0.333333 -0.331656
0.116011 -0.333333 -0.33706
0.118834 -0.333333 -0.339876
0.124479 -0.333333 -0.34551
0.127592 -0.333333 -0.34832
0.133819 -0.333333 -0.353941
0.13725 -0.333333 -0.35673
0.144112 -0.333333 -0.362308
0.147887 -0.333333 -0.365139
0.155438 -0.333333 -0.370802
0.159597 -0.333333 -0.373566
0.167915 -0.333333 -0.379095
0.172496 -0.333333 -0.381718
0.181658 -0.333333 -0.386964
0.1867 -0.333333 -0.389493
0.196783 -0.333333 -0.394549
0.202124 -0.333333 -0.396725
0.212805 -0.333333 -0.401077
0.218145 -0.333333 -0.402968
0.228826 -0.333333 -0.40675
0.234171 -0.333333 -0.408169
0.24486 -0.333333 -0.411007
0.250205 -0.333333 -0.41213
0.260896 -0.333333 -0.414376
0.266242 -0.333333 -0.415219
0.276934 -0.333333 -0.416904
0.282281 -0.333333 -0.417364
0.292974 -0.333333 -0.418284
0.298321 -0.333333 -0.418549
0.309015 -0.333333 -0.419078
0.314361 -0.333333 -0.419083
0.325055 -0.333333 -0.419091
0.330401 -0.333333 -0.418804
0.341094 -0.333333 -0.41823
0.0737039 -0.333333 -0.283527
0.0750023 -0.333333 -0.285568
0.0764327 -0.333333 -0.287728
0.0792933 -0.333333 -0.292048
0.0808709 -0.333333 -0.29431
0.0840261 -0.333333 -0.298833
0.0857647 -0.333333 -0.301203
0.089242 -0.333333 -0.305944
0.0911575 -0.333333 -0.308422
0.0949885 -0.333333 -0.31338
0.0971013 -0.333333 -0.315937
0.101327 -0.333333 -0.321051
0.103655 -0.333333 -0.323685
0.108313 -0.333333 -0.328954
0.110879 -0.333333 -0.331656
0.116011 -0.333333 -0.33706
0.118834 -0.333333 -0.339876
0.124479 -0.333333 -0.34551
0.127592 -0.333333 -0.34832
0.133819 -0.333333 -0.353941
0.13725 -0.333333 -0.35673
0.144112 -0.333333 -0.362308
0.147887 -0.333333 -0.365139
0.155438 -0.333333 -0.370802
0.159597 -0.333333 -0.373566
0.167915 -0.333333 -0.379095
0.172496 -0.333333 -0.381718
0.181658 -0.333333 -0.386964
0.1867 -0.333333 -0.389493
0.196783 -0.333333 -0.394549
0.202124 -0.333333 -0.396725
0.212805 -0.333333 -0.401077
0.218145 -0.333333 -0.402968
0.228826 -0.333333 -0.40675
0.234171 -0.333333 -0.408169
0.24486 -0.333333 -0.411007
0.250205 -0.333333 -0.41213
0.260896 -0.333333 -0.414376
0.266242 -0.333333 -0.415219
0.276934 -0.333333 -0.416904
0.282281 -0.333333 -0.417364
0.292974 -0.333333 -0.418284
0.298321 -0.333333 -0.418549
0.309015 -0.333333 -0.419078
0.314361 -0.333333 -0.419083
0.325055 -0.333333 -0.419091
0.330401 -0.333333 -0.418804
0.341094 -0.333333 -0.41823
0.346439 -0.333333 -0.417748
0.357131 -0.333333 -0.416784
0.077863 -0.333333 -0.289888
0.0792933 -0.333333 -0.292048
0.0808709 -0.333333 -0.29431
0.0840261 -0.333333 -0.298833
0.0857647 -0.333333 -0.301203
0.089242 -0.333333 -0.305944
0.0911575 -0.333333 -0.308422
0.0949885 -0.333333 -0.31338
0.0971013 -0.333333 -0.315937
0.101327 -0.333333 -0.321051
0.103655 -0.333333 -0.323685
0.108313 -0.333333 -0.328954
0.110879 -0.333333 -0.331656
0.116011 -0.333333 -0.33706
0.118834 -0.333333 -0.339876
0.124479 -0.333333 -0.34551
0.127592 -0.333333 -0.34832
0.133819 -0.333333 -0.353941
0.13725 -0.333333 -0.35673
0.144112 -0.333333 -0.362308
0.147887 -0.333333 -0.365139
0.155438 -0.333333 -0.370802
0.159597 -0.333333 -0.373566
0.167915 -0.333333 -0.379095
0.172496 -0.333333 -0.381718
0.181658 -0.333333 -0.386964
0.1867 -0.333333 -0.389493
0.196783 -0.333333 -0.394549
0.202124 -0.333333 -0.396725
0.212805 -0.333333 -0.401077
0.218145 -0.333333 -0.402968
0.228826 -0.333333 -0.40675
0.234171 -0.333333 -0.408169
0.24486 -0.333333 -0.411007
0.250205 -0.333333 -0.41213
0.260896 -0.333333 -0.414376
0.266242 -0.333333 -0.415219
0.276934 -0.333333 -0.416904
0.282281 -0.333333 -0.417364
0.292974 -0.333333 -0.418284
0.298321 -0.333333 -0.418549
0.309015 -0.333333 -0.419078
0.314361 -0.333333 -0.419083
0.325055 -0.333333 -0.419091
0.330401 -0.333333 -0.418804
0.341094 -0.333333 -0.41823
0.346439 -0.333333 -0.417748
0.357131 -0.333333 -0.416784
0.362476 -0.333333 -0.416038
0.373165 -0.333333 -0.414546
0.0824485 -0.333333 -0.296571
0.0840261 -0.333333 -0.298833
0.0857647 -0.333333 -0.301203
0.089242 -0.333333 -0.305944
0.0911575 -0.333333 -0.308422
0.0949885 -0.333333 -0.31338
0.0971013 -0.333333 -0.315937
0.101327 -0.333333 -0.321051
0.103655 -0.333333 -0.323685
0.108313 -0.333333 -0.328954
0.110879 -0.333333 -0.331656
0.116011 -0.333333 -0.33706
0.118834 -0.333333 -0.339876
0.124479 -0.333333 -0.34551
0.127592 -0.333333 -0.34832
0.133819 -0.333333 -0.353941
0.13725 -0.333333 -0.35673
0.144112 -0.333333 -0.362308
0.147887 -0.333333 -0.365139
0.155438 -0.333333 -0.370802
0.159597 -0.333333 -0.373566
0.167915 -0.333333 -0.379095
0.172496 -0.333333 -0.381718
0.181658 -0.333333 -0.386964
0.1867 -0.333333 -0.389493
0.196783 -0.333333 -0.394549
0.202124 -0.333333 -0.396725
0.212805 -0.333333 -0.401077
0.218145 -0.333333 -0.402968
0.228826 -0.333333 -0.40675
0.234171 -0.333333 -0.408169
0.24486 -0.333333 -0.411007
0.250205 -0.333333 -0.41213
0.260896 -0.333333 -0.414376
0.266242 -0.333333 -0.415219
0.276934 -0.333333 -0.416904
0.282281 -0.333333 -0.417364
0.292974 -0.333333 -0.418284
0.298321 -0.333333 -0.418549
0.309015 -0.333333 -0.419078
0.314361 -0.333333 -0.419083
0.325055 -0.333333 -0.419091
0.330401 -0.333333 -0.418804
0.341094 -0.333333 -0.41823
0.346439 -0.333333 -0.417748
0.357131 -0.333333 -0.416784
0.362476 -0.333333 -0.416038
0.373165 -0.333333 -0.414546
0.378509 -0.333333 -0.413626
0.389197 -0.333333 -0.411787
0.0875033 -0.333333 -0.303573
0.089242 -0.333333 -0.305944
0.0911575 -0.333333 -0.308422
0.0949885 -0.333333 -0.31338
0.0971013 -0.333333 -0.315937
0.101327 -0.333333 -0.321051
0.103655 -0.333333 -0.323685
0.108313 -0.333333 -0.328954
0.110879 -0.333333 -0.331656
0.116011 -0.333333 -0.33706
0.118834 -0.333333 -0.339876
0.124479 -0.333333 -0.34551
0.127592 -0.333333 -0.34832
0.133819 -0.333333 -0.353941
0.13725 -0.333333 -0.35673
0.144112 -0.333333 -0.362308
0.147887 -0.333333 -0.365139
0.155438 -0.333333 -0.370802
0.159597 -0.333333 -0.373566
0.167915 -0.333333 -0.379095
0.172496 -0.333333 -0.381718
0.181658 -0.333333 -0.386964
0.1867 -0.333333 -0.389493
0.196783 -0.333333 -0.394549
0.202124 -0.333333 -0.396725
0.212805 -0.333333 -0.401077
0.218145 -0.333333 -0.402968
0.228826 -0.333333 -0.40675
0.234171 -0.333333 -0.408169
0.24486 -0.333333 -0.411007
0.250205 -0.333333 -0.41213
0.260896 -0.333333 -0.414376
0.266242 -0.333333 -0.415219
0.276934 -0.333333 -0.416904
0.282281 -0.333333 -0.417364
0.292974 -0.333333 -0.418284
0.298321 -0.333333 -0.418549
0.309015 -0.333333 -0.419078
0.314361 -0.333333 -0.419083
0.325055 -0.333333 -0.419091
0.330401 -0.333333 -0.418804
0.341094 -0.333333 -0.41823
[...]
POINT_DATA 8676
 FIELD attributes 2
U 3 8676 float
-8.58367e-13 	0 	1.26423e-12 0 	0 	0 1.51445e-13 	0 	-2.17926e-13 0 	0 	0 0 	0 	0 0 	0 	0 1.27595e-13 	-1.58113e-33 	-1.71569e-13 0 	0 	0 -4.50168e-14 	0 	5.84738e-14 0 	0 	0 -1.2753e-13 	-4.9852e-33 	1.5921e-13 0 	0 	0 -1.18714e-13 	0 	1.42064e-13 0 	0 	0 1.81036e-14 	-1.01087e-33 	-2.06702e-14 0 	0 	0 -3.10038e-13 	1.8803e-32 	3.35675e-13 0 	0 	0 -1.0352e-13 	6.5598e-33 	1.06086e-13 0 	0 	0 0 	0 	0 0 	0 	0 -2.59663e-13 	0 	2.36627e-13 0 	0 	0 3.31059e-13 	-4.47665e-32 	-2.78875e-13 0 	0 	0 -6.25289e-13 	1.42565e-33 	4.87287e-13 0 	0 	0 6.93122e-13 	-9.04846e-32 	-4.99457e-13 0 	0 	0 -3.08628e-14 	-4.02432e-33 	2.01904e-14 0 	0 	0 5.23201e-13 	0 	-3.07926e-13 0 	0 	0 -9.97253e-13 	-4.75843e-33 	5.23519e-13 0 	0 	0 1.43159e-13 	-1.4582e-33 	-6.61469e-14 0 	0 	0 6.66042e-13 	-7.90879e-32 	-2.68901e-13 0 	0 	0 -1.13708e-13 	0 	3.94221e-14 0 	0 	0 1.03043e-12 	0 	-3.06027e-13 0 	0 	0 8.74109e-13 	0 	-2.17525e-13 0 	0 	0 9.31883e-13 	2.77602e-32 	-1.88246e-13 0 	0 	0 -8.89217e-13 	1.29009e-32 	1.45202e-13 0 	0 	0
-1.6091e-13 	0 	2.31546e-13 0 	0 	0 0 	0 	0 0 	0 	0 1.27595e-13 	-1.58113e-33 	-1.71569e-13 0 	0 	0 -4.50168e-14 	0 	5.84738e-14 0 	0 	0 -1.2753e-13 	-4.9852e-33 	1.5921e-13 0 	0 	0 -1.18714e-13 	0 	1.42064e-13 0 	0 	0 1.81036e-14 	-1.01087e-33 	-2.06702e-14 0 	0 	0 -3.10038e-13 	1.8803e-32 	3.35675e-13 0 	0 	0 -1.0352e-13 	6.5598e-33 	1.06086e-13 0 	0 	0 0 	0 	0 0 	0 	0 -2.59663e-13 	0 	2.36627e-13 0 	0 	0 3.31059e-13 	-4.47665e-32 	-2.78875e-13 0 	0 	0 -6.25289e-13 	1.42565e-33 	4.87287e-13 0 	0 	0 6.93122e-13 	-9.04846e-32 	-4.99457e-13 0 	0 	0 -3.08628e-14 	-4.02432e-33 	2.01904e-14 0 	0 	0 5.23201e-13 	0 	-3.07926e-13 0 	0 	0 -9.97253e-13 	-4.75843e-33 	5.23519e-13 0 	0 	0 1.43159e-13 	-1.4582e-33 	-6.61469e-14 0 	0 	0 6.66042e-13 	-7.90879e-32 	-2.68901e-13 0 	0 	0 -1.13708e-13 	0 	3.94221e-14 0 	0 	0 1.03043e-12 	0 	-3.06027e-13 0 	0 	0 8.74109e-13 	0 	-2.17525e-13 0 	0 	0 9.31883e-13 	2.77602e-32 	-1.88246e-13 0 	0 	0 -8.89217e-13 	1.29009e-32 	1.45202e-13 0 	0 	0 7.25157e-17 	-6.02971e-38 	-8.79496e-18 0 	0 	0
0 	0 	0 0 	0 	0 1.27595e-13 	-1.58113e-33 	-1.71569e-13 0 	0 	0 -4.50168e-14 	0 	5.84738e-14 0 	0 	0 -1.2753e-13 	-4.9852e-33 	1.5921e-13 0 	0 	0 -1.18714e-13 	0 	1.42064e-13 0 	0 	0 1.81036e-14 	-1.01087e-33 	-2.06702e-14 0 	0 	0 -3.10038e-13 	1.8803e-32 	3.35675e-13 0 	0 	0 -1.0352e-13 	6.5598e-33 	1.06086e-13 0 	0 	0 0 	0 	0 0 	0 	0 -2.59663e-13 	0 	2.36627e-13 0 	0 	0 3.31059e-13 	-4.47665e-32 	-2.78875e-13 0 	0 	0 -6.25289e-13 	1.42565e-33 	4.87287e-13 0 	0 	0 6.93122e-13 	-9.04846e-32 	-4.99457e-13 0 	0 	0 -3.08628e-14 	-4.02432e-33 	2.01904e-14 0 	0 	0 5.23201e-13 	0 	-3.07926e-13 0 	0 	0 -9.97253e-13 	-4.75843e-33 	5.23519e-13 0 	0 	0 1.43159e-13 	-1.4582e-33 	-6.61469e-14 0 	0 	0 6.66042e-13 	-7.90879e-32 	-2.68901e-13 0 	0 	0 -1.13708e-13 	0 	3.94221e-14 0 	0 	0 1.03043e-12 	0 	-3.06027e-13 0 	0 	0 8.74109e-13 	0 	-2.17525e-13 0 	0 	0 9.31883e-13 	2.77602e-32 	-1.88246e-13 0 	0 	0 -8.89217e-13 	1.29009e-32 	1.45202e-13 0 	0 	0 7.25157e-17 	-6.02971e-38 	-8.79496e-18 0 	0 	0 7.65306e-13 	0 	-5.80267e-14 0 	0 	0
-7.01772e-13 	8.69622e-33 	9.4363e-13 0 	0 	0 -4.50168e-14 	0 	5.84738e-14 0 	0 	0 -1.2753e-13 	-4.9852e-33 	1.5921e-13 0 	0 	0 -1.18714e-13 	0 	1.42064e-13 0 	0 	0 1.81036e-14 	-1.01087e-33 	-2.06702e-14 0 	0 	0 -3.10038e-13 	1.8803e-32 	3.35675e-13 0 	0 	0 -1.0352e-13 	6.5598e-33 	1.06086e-13 0 	0 	0 0 	0 	0 0 	0 	0 -2.59663e-13 	0 	2.36627e-13 0 	0 	0 3.31059e-13 	-4.47665e-32 	-2.78875e-13 0 	0 	0 -6.25289e-13 	1.42565e-33 	4.87287e-13 0 	0 	0 6.93122e-13 	-9.04846e-32 	-4.99457e-13 0 	0 	0 -3.08628e-14 	-4.02432e-33 	2.01904e-14 0 	0 	0 5.23201e-13 	0 	-3.07926e-13 0 	0 	0 -9.97253e-13 	-4.75843e-33 	5.23519e-13 0 	0 	0 1.43159e-13 	-1.4582e-33 	-6.61469e-14 0 	0 	0 6.66042e-13 	-7.90879e-32 	-2.68901e-13 0 	0 	0 -1.13708e-13 	0 	3.94221e-14 0 	0 	0 1.03043e-12 	0 	-3.06027e-13 0 	0 	0 8.74109e-13 	0 	-2.17525e-13 0 	0 	0 9.31883e-13 	2.77602e-32 	-1.88246e-13 0 	0 	0 -8.89217e-13 	1.29009e-32 	1.45202e-13 0 	0 	0 7.25157e-17 	-6.02971e-38 	-8.79496e-18 0 	0 	0 7.65306e-13 	0 	-5.80267e-14 0 	0 	0 8.50598e-13 	-2.47733e-32 	-3.07426e-14 0 	0 	0
-3.30123e-13 	0 	4.28808e-13 0 	0 	0 -1.2753e-13 	-4.9852e-33 	1.5921e-13 0 	0 	0 -1.18714e-13 	0 	1.42064e-13 0 	0 	0 1.81036e-14 	-1.01087e-33 	-2.06702e-14 0 	0 	0 -3.10038e-13 	1.8803e-32 	3.35675e-13 0 	0 	0 -1.0352e-13 	6.5598e-33 	1.06086e-13 0 	0 	0 0 	0 	0 0 	0 	0 -2.59663e-13 	0 	2.36627e-13 0 	0 	0 3.31059e-13 	-4.47665e-32 	-2.78875e-13 0 	0 	0 -6.25289e-13 	1.42565e-33 	4.87287e-13 0 	0 	0 6.93122e-13 	-9.04846e-32 	-4.99457e-13 0 	0 	0 -3.08628e-14 	-4.02432e-33 	2.01904e-14 0 	0 	0 5.23201e-13 	0 	-3.07926e-13 0 	0 	0 -9.97253e-13 	-4.75843e-33 	5.23519e-13 0 	0 	0 1.43159e-13 	-1.4582e-33 	-6.61469e-14 0 	0 	0 6.66042e-13 	-7.90879e-32 	-2.68901e-13 0 	0 	0 -1.13708e-13 	0 	3.94221e-14 0 	0 	0 1.03043e-12 	0 	-3.06027e-13 0 	0 	0 8.74109e-13 	0 	-2.17525e-13 0 	0 	0 9.31883e-13 	2.77602e-32 	-1.88246e-13 0 	0 	0 -8.89217e-13 	1.29009e-32 	1.45202e-13 0 	0 	0 7.25157e-17 	-6.02971e-38 	-8.79496e-18 0 	0 	0 7.65306e-13 	0 	-5.80267e-14 0 	0 	0 8.50598e-13 	-2.47733e-32 	-3.07426e-14 0 	0 	0 -6.40088e-13 	3.24731e-32 	-3.64993e-15 0 	0 	0
1.2753e-13 	4.9852e-33 	-1.5921e-13 0 	0 	0 -1.18714e-13 	0 	1.42064e-13 0 	0 	0 1.81036e-14 	-1.01087e-33 	-2.06702e-14 0 	0 	0 -3.10038e-13 	1.8803e-32 	3.35675e-13 0 	0 	0 -1.0352e-13 	6.5598e-33 	1.06086e-13 0 	0 	0 0 	0 	0 0 	0 	0 -2.59663e-13 	0 	2.36627e-13 0 	0 	0 3.31059e-13 	-4.47665e-32 	-2.78875e-13 0 	0 	0 -6.25289e-13 	1.42565e-33 	4.87287e-13 0 	0 	0 6.93122e-13 	-9.04846e-32 	-4.99457e-13 0 	0 	0 -3.08628e-14 	-4.02432e-33 	2.01904e-14 0 	0 	0 5.23201e-13 	0 	-3.07926e-13 0 	0 	0 -9.97253e-13 	-4.75843e-33 	5.23519e-13 0 	0 	0 1.43159e-13 	-1.4582e-33 	-6.61469e-14 0 	0 	0 6.66042e-13 	-7.90879e-32 	-2.68901e-13 0 	0 	0 -1.13708e-13 	0 	3.94221e-14 0 	0 	0 1.03043e-12 	0 	-3.06027e-13 0 	0 	0 8.74109e-13 	0 	-2.17525e-13 0 	0 	0 9.31883e-13 	2.77602e-32 	-1.88246e-13 0 	0 	0 -8.89217e-13 	1.29009e-32 	1.45202e-13 0 	0 	0 7.25157e-17 	-6.02971e-38 	-8.79496e-18 0 	0 	0 7.65306e-13 	0 	-5.80267e-14 0 	0 	0 8.50598e-13 	-2.47733e-32 	-3.07426e-14 0 	0 	0 -6.40088e-13 	3.24731e-32 	-3.64993e-15 0 	0 	0 1.12411e-13 	-1.96763e-34 	5.25145e-15 0 	0 	0
5.17252e-13 	0 	-6.18995e-13 0 	0 	0 1.81036e-14 	-1.01087e-33 	-2.06702e-14 0 	0 	0 -3.10038e-13 	1.8803e-32 	3.35675e-13 0 	0 	0 -1.0352e-13 	6.5598e-33 	1.06086e-13 0 	0 	0 0 	0 	0 0 	0 	0 -2.59663e-13 	0 	2.36627e-13 0 	0 	0 3.31059e-13 	-4.47665e-32 	-2.78875e-13 0 	0 	0 -6.25289e-13 	1.42565e-33 	4.87287e-13 0 	0 	0 6.93122e-13 	-9.04846e-32 	-4.99457e-13 0 	0 	0 -3.08628e-14 	-4.02432e-33 	2.01904e-14 0 	0 	0 5.23201e-13 	0 	-3.07926e-13 0 	0 	0 -9.97253e-13 	-4.75843e-33 	5.23519e-13 0 	0 	0 1.43159e-13 	-1.4582e-33 	-6.61469e-14 0 	0 	0 6.66042e-13 	-7.90879e-32 	-2.68901e-13 0 	0 	0 -1.13708e-13 	0 	3.94221e-14 0 	0 	0 1.03043e-12 	0 	-3.06027e-13 0 	0 	0 8.74109e-13 	0 	-2.17525e-13 0 	0 	0 9.31883e-13 	2.77602e-32 	-1.88246e-13 0 	0 	0 -8.89217e-13 	1.29009e-32 	1.45202e-13 0 	0 	0 7.25157e-17 	-6.02971e-38 	-8.79496e-18 0 	0 	0 7.65306e-13 	0 	-5.80267e-14 0 	0 	0 8.50598e-13 	-2.47733e-32 	-3.07426e-14 0 	0 	0 -6.40088e-13 	3.24731e-32 	-3.64993e-15 0 	0 	0 1.12411e-13 	-1.96763e-34 	5.25145e-15 0 	0 	0 -7.99232e-13 	0 	-6.14218e-14 0 	0 	0
4.07332e-13 	-2.27447e-32 	-4.6508e-13 0 	0 	0 -3.10038e-13 	1.8803e-32 	3.35675e-13 0 	0 	0 -1.0352e-13 	6.5598e-33 	1.06086e-13 0 	0 	0 0 	0 	0 0 	0 	0 -2.59663e-13 	0 	2.36627e-13 0 	0 	0 3.31059e-13 	-4.47665e-32 	-2.78875e-13 0 	0 	0 -6.25289e-13 	1.42565e-33 	4.87287e-13 0 	0 	0 6.93122e-13 	-9.04846e-32 	-4.99457e-13 0 	0 	0 -3.08628e-14 	-4.02432e-33 	2.01904e-14 0 	0 	0 5.23201e-13 	0 	-3.07926e-13 0 	0 	0 -9.97253e-13 	-4.75843e-33 	5.23519e-13 0 	0 	0 1.43159e-13 	-1.4582e-33 	-6.61469e-14 0 	0 	0 6.66042e-13 	-7.90879e-32 	-2.68901e-13 0 	0 	0 -1.13708e-13 	0 	3.94221e-14 0 	0 	0 1.03043e-12 	0 	-3.06027e-13 0 	0 	0 8.74109e-13 	0 	-2.17525e-13 0 	0 	0 9.31883e-13 	2.77602e-32 	-1.88246e-13 0 	0 	0 -8.89217e-13 	1.29009e-32 	1.45202e-13 0 	0 	0 7.25157e-17 	-6.02971e-38 	-8.79496e-18 0 	0 	0 7.65306e-13 	0 	-5.80267e-14 0 	0 	0 8.50598e-13 	-2.47733e-32 	-3.07426e-14 0 	0 	0 -6.40088e-13 	3.24731e-32 	-3.64993e-15 0 	0 	0 1.12411e-13 	-1.96763e-34 	5.25145e-15 0 	0 	0 -7.99232e-13 	0 	-6.14218e-14 0 	0 	0 1.46148e-14 	1.45268e-33 	1.6134e-15 0 	0 	0
-6.20076e-13 	3.7606e-32 	6.7135e-13 0 	0 	0 -1.0352e-13 	6.5598e-33 	1.06086e-13 0 	0 	0 0 	0 	0 0 	0 	0 -2.59663e-13 	0 	2.36627e-13 0 	0 	0 3.31059e-13 	-4.47665e-32 	-2.78875e-13 0 	0 	0 -6.25289e-13 	1.42565e-33 	4.87287e-13 0 	0 	0 6.93122e-13 	-9.04846e-32 	-4.99457e-13 0 	0 	0 -3.08628e-14 	-4.02432e-33 	2.01904e-14 0 	0 	0 5.23201e-13 	0 	-3.07926e-13 0 	0 	0 -9.97253e-13 	-4.75843e-33 	5.23519e-13 0 	0 	0 1.43159e-13 	-1.4582e-33 	-6.61469e-14 0 	0 	0 6.66042e-13 	-7.90879e-32 	-2.68901e-13 0 	0 	0 -1.13708e-13 	0 	3.94221e-14 0 	0 	0 1.03043e-12 	0 	-3.06027e-13 0 	0 	0 8.74109e-13 	0 	-2.17525e-13 0 	0 	0 9.31883e-13 	2.77602e-32 	-1.88246e-13 0 	0 	0 -8.89217e-13 	1.29009e-32 	1.45202e-13 0 	0 	0 7.25157e-17 	-6.02971e-38 	-8.79496e-18 0 	0 	0 7.65306e-13 	0 	-5.80267e-14 0 	0 	0 8.50598e-13 	-2.47733e-32 	-3.07426e-14 0 	0 	0 -6.40088e-13 	3.24731e-32 	-3.64993e-15 0 	0 	0 1.12411e-13 	-1.96763e-34 	5.25145e-15 0 	0 	0 -7.99232e-13 	0 	-6.14218e-14 0 	0 	0 1.46148e-14 	1.45268e-33 	1.6134e-15 0 	0 	0 1.3704e-14 	0 	1.99227e-15 0 	0 	0
1.44928e-13 	-9.18372e-33 	-1.4852e-13 0 	0 	0 0 	0 	0 0 	0 	0 -2.59663e-13 	0 	2.36627e-13 0 	0 	0 3.31059e-13 	-4.47665e-32 	-2.78875e-13 0 	0 	0 -6.25289e-13 	1.42565e-33 	4.87287e-13 0 	0 	0 6.93122e-13 	-9.04846e-32 	-4.99457e-13 0 	0 	0 -3.08628e-14 	-4.02432e-33 	2.01904e-14 0 	0 	0 5.23201e-13 	0 	-3.07926e-13 0 	0 	0 -9.97253e-13 	-4.75843e-33 	5.23519e-13 0 	0 	0 1.43159e-13 	-1.4582e-33 	-6.61469e-14 0 	0 	0 6.66042e-13 	-7.90879e-32 	-2.68901e-13 0 	0 	0 -1.13708e-13 	0 	3.94221e-14 0 	0 	0 1.03043e-12 	0 	-3.06027e-13 0 	0 	0 8.74109e-13 	0 	-2.17525e-13 0 	0 	0 9.31883e-13 	2.77602e-32 	-1.88246e-13 0 	0 	0 -8.89217e-13 	1.29009e-32 	1.45202e-13 0 	0 	0 7.25157e-17 	-6.02971e-38 	-8.79496e-18 0 	0 	0 7.65306e-13 	0 	-5.80267e-14 0 	0 	0 8.50598e-13 	-2.47733e-32 	-3.07426e-14 0 	0 	0 -6.40088e-13 	3.24731e-32 	-3.64993e-15 0 	0 	0 1.12411e-13 	-1.96763e-34 	5.25145e-15 0 	0 	0 -7.99232e-13 	0 	-6.14218e-14 0 	0 	0 1.46148e-14 	1.45268e-33 	1.6134e-15 0 	0 	0 1.3704e-14 	0 	1.99227e-15 0 	0 	0 -1.26757e-14 	0 	-2.28538e-15 0 	0 	0
-4.08225e-13 	-3.83885e-34 	3.95465e-13 0 	0 	0 -2.59663e-13 	0 	2.36627e-13 0 	0 	0 3.31059e-13 	-4.47665e-32 	-2.78875e-13 0 	0 	0 -6.25289e-13 	1.42565e-33 	4.87287e-13 0 	0 	0 6.93122e-13 	-9.04846e-32 	-4.99457e-13 0 	0 	0 -3.08628e-14 	-4.02432e-33 	2.01904e-14 0 	0 	0 5.23201e-13 	0 	-3.07926e-13 0 	0 	0 -9.97253e-13 	-4.75843e-33 	5.23519e-13 0 	0 	0 1.43159e-13 	-1.4582e-33 	-6.61469e-14 0 	0 	0 6.66042e-13 	-7.90879e-32 	-2.68901e-13 0 	0 	0 -1.13708e-13 	0 	3.94221e-14 0 	0 	0 1.03043e-12 	0 	-3.06027e-13 0 	0 	0 8.74109e-13 	0 	-2.17525e-13 0 	0 	0 9.31883e-13 	2.77602e-32 	-1.88246e-13 0 	0 	0 -8.89217e-13 	1.29009e-32 	1.45202e-13 0 	0 	0 7.25157e-17 	-6.02971e-38 	-8.79496e-18 0 	0 	0 7.65306e-13 	0 	-5.80267e-14 0 	0 	0 8.50598e-13 	-2.47733e-32 	-3.07426e-14 0 	0 	0 -6.40088e-13 	3.24731e-32 	-3.64993e-15 0 	0 	0 1.12411e-13 	-1.96763e-34 	5.25145e-15 0 	0 	0 -7.99232e-13 	0 	-6.14218e-14 0 	0 	0 1.46148e-14 	1.45268e-33 	1.6134e-15 0 	0 	0 1.3704e-14 	0 	1.99227e-15 0 	0 	0 -1.26757e-14 	0 	-2.28538e-15 0 	0 	0 -1.62702e-13 	1.25588e-32 	-3.45805e-14 0 	0 	0
-9.56032e-13 	0 	8.71219e-13 -3.83016e-13 	1.12676e-34 	3.48226e-13 3.31059e-13 	-4.47665e-32 	-2.78875e-13 0 	0 	0 -6.25289e-13 	1.42565e-33 	4.87287e-13 0 	0 	0 6.93122e-13 	-9.04846e-32 	-4.99457e-13 0 	0 	0 -3.08628e-14 	-4.02432e-33 	2.01904e-14 0 	0 	0 5.23201e-13 	0 	-3.07926e-13 0 	0 	0 -9.97253e-13 	-4.75843e-33 	5.23519e-13 0 	0 	0 1.43159e-13 	-1.4582e-33 	-6.61469e-14 0 	0 	0 6.66042e-13 	-7.90879e-32 	-2.68901e-13 0 	0 	0 -1.13708e-13 	0 	3.94221e-14 0 	0 	0 1.03043e-12 	0 	-3.06027e-13 0 	0 	0 8.74109e-13 	0 	-2.17525e-13 0 	0 	0 9.31883e-13 	2.77602e-32 	-1.88246e-13 0 	0 	0 -8.89217e-13 	1.29009e-32 	1.45202e-13 0 	0 	0 7.25157e-17 	-6.02971e-38 	-8.79496e-18 0 	0 	0 7.65306e-13 	0 	-5.80267e-14 0 	0 	0 8.50598e-13 	-2.47733e-32 	-3.07426e-14 0 	0 	0 -6.40088e-13 	3.24731e-32 	-3.64993e-15 0 	0 	0 1.12411e-13 	-1.96763e-34 	5.25145e-15 0 	0 	0 -7.99232e-13 	0 	-6.14218e-14 0 	0 	0 1.46148e-14 	1.45268e-33 	1.6134e-15 0 	0 	0 1.3704e-14 	0 	1.99227e-15 0 	0 	0 -1.26757e-14 	0 	-2.28538e-15 0 	0 	0 -1.62702e-13 	1.25588e-32 	-3.45805e-14 0 	0 	0 3.04453e-13 	6.10383e-34 	7.45098e-14 0 	0 	0
1.83356e-12 	-2.47937e-31 	-1.54454e-12 0 	0 	0 -6.25289e-13 	1.42565e-33 	4.87287e-13 0 	0 	0 6.93122e-13 	-9.04846e-32 	-4.99457e-13 0 	0 	0 -3.08628e-14 	-4.02432e-33 	2.01904e-14 0 	0 	0 5.23201e-13 	0 	-3.07926e-13 0 	0 	0 -9.97253e-13 	-4.75843e-33 	5.23519e-13 0 	0 	0 1.43159e-13 	-1.4582e-33 	-6.61469e-14 0 	0 	0 6.66042e-13 	-7.90879e-32 	-2.68901e-13 0 	0 	0 -1.13708e-13 	0 	3.94221e-14 0 	0 	0 1.03043e-12 	0 	-3.06027e-13 0 	0 	0 8.74109e-13 	0 	-2.17525e-13 0 	0 	0 9.31883e-13 	2.77602e-32 	-1.88246e-13 0 	0 	0 -8.89217e-13 	1.29009e-32 	1.45202e-13 0 	0 	0 7.25157e-17 	-6.02971e-38 	-8.79496e-18 0 	0 	0 7.65306e-13 	0 	-5.80267e-14 0 	0 	0 8.50598e-13 	-2.47733e-32 	-3.07426e-14 0 	0 	0 -6.40088e-13 	3.24731e-32 	-3.64993e-15 0 	0 	0 1.12411e-13 	-1.96763e-34 	5.25145e-15 0 	0 	0 -7.99232e-13 	0 	-6.14218e-14 0 	0 	0 1.46148e-14 	1.45268e-33 	1.6134e-15 0 	0 	0 1.3704e-14 	0 	1.99227e-15 0 	0 	0 -1.26757e-14 	0 	-2.28538e-15 0 	0 	0 -1.62702e-13 	1.25588e-32 	-3.45805e-14 0 	0 	0 3.04453e-13 	6.10383e-34 	7.45098e-14 0 	0 	0 5.51041e-13 	2.47581e-34 	1.52099e-13 0 	0 	0
-1.26417e-12 	2.88229e-33 	9.85167e-13 -7.22791e-13 	4.26021e-33 	5.61459e-13 -5.48722e-13 	7.16336e-32 	3.95404e-13 0 	0 	0 -3.08628e-14 	-4.02432e-33 	2.01904e-14 0 	0 	0 5.23201e-13 	0 	-3.07926e-13 0 	0 	0 -9.97253e-13 	-4.75843e-33 	5.23519e-13 0 	0 	0 1.43159e-13 	-1.4582e-33 	-6.61469e-14 0 	0 	0 6.66042e-13 	-7.90879e-32 	-2.68901e-13 0 	0 	0 -1.13708e-13 	0 	3.94221e-14 0 	0 	0 1.03043e-12 	0 	-3.06027e-13 0 	0 	0 8.74109e-13 	0 	-2.17525e-13 0 	0 	0 9.31883e-13 	2.77602e-32 	-1.88246e-13 0 	0 	0 -8.89217e-13 	1.29009e-32 	1.45202e-13 0 	0 	0 7.25157e-17 	-6.02971e-38 	-8.79496e-18 0 	0 	0 7.65306e-13 	0 	-5.80267e-14 0 	0 	0 8.50598e-13 	-2.47733e-32 	-3.07426e-14 0 	0 	0 -6.40088e-13 	3.24731e-32 	-3.64993e-15 0 	0 	0 1.12411e-13 	-1.96763e-34 	5.25145e-15 0 	0 	0 -7.99232e-13 	0 	-6.14218e-14 0 	0 	0 1.46148e-14 	1.45268e-33 	1.6134e-15 0 	0 	0 1.3704e-14 	0 	1.99227e-15 0 	0 	0 -1.26757e-14 	0 	-2.28538e-15 0 	0 	0 -1.62702e-13 	1.25588e-32 	-3.45805e-14 0 	0 	0 3.04453e-13 	6.10383e-34 	7.45098e-14 0 	0 	0 5.51041e-13 	2.47581e-34 	1.52099e-13 0 	0 	0 -6.10391e-14 	7.6253e-34 	-1.84176e-14 0 	0 	0
-6.49802e-13 	8.48293e-32 	4.68241e-13 0 	0 	0 -3.08628e-14 	-4.02432e-33 	2.01904e-14 0 	0 	0 5.23201e-13 	0 	-3.07926e-13 0 	0 	0 -9.97253e-13 	-4.75843e-33 	5.23519e-13 0 	0 	0 1.43159e-13 	-1.4582e-33 	-6.61469e-14 0 	0 	0 6.66042e-13 	-7.90879e-32 	-2.68901e-13 0 	0 	0 -1.13708e-13 	0 	3.94221e-14 0 	0 	0 1.03043e-12 	0 	-3.06027e-13 0 	0 	0 8.74109e-13 	0 	-2.17525e-13 0 	0 	0 9.31883e-13 	2.77602e-32 	-1.88246e-13 0 	0 	0 -8.89217e-13 	1.29009e-32 	1.45202e-13 0 	0 	0 7.25157e-17 	-6.02971e-38 	-8.79496e-18 0 	0 	0 7.65306e-13 	0 	-5.80267e-14 0 	0 	0 8.50598e-13 	-2.47733e-32 	-3.07426e-14 0 	0 	0 -6.40088e-13 	3.24731e-32 	-3.64993e-15 0 	0 	0 1.12411e-13 	-1.96763e-34 	5.25145e-15 0 	0 	0 -7.99232e-13 	0 	-6.14218e-14 0 	0 	0 1.46148e-14 	1.45268e-33 	1.6134e-15 0 	0 	0 1.3704e-14 	0 	1.99227e-15 0 	0 	0 -1.26757e-14 	0 	-2.28538e-15 0 	0 	0 -1.62702e-13 	1.25588e-32 	-3.45805e-14 0 	0 	0 3.04453e-13 	6.10383e-34 	7.45098e-14 0 	0 	0 5.51041e-13 	2.47581e-34 	1.52099e-13 0 	0 	0 -6.10391e-14 	7.6253e-34 	-1.84176e-14 0 	0 	0 2.17496e-13 	1.57053e-32 	6.70144e-14 0 	0 	0
-2.14497e-12 	-2.7969e-31 	1.40323e-12 0 	0 	0 5.23201e-13 	0 	-3.07926e-13 0 	0 	0 -9.97253e-13 	-4.75843e-33 	5.23519e-13 0 	0 	0 1.43159e-13 	-1.4582e-33 	-6.61469e-14 0 	0 	0 6.66042e-13 	-7.90879e-32 	-2.68901e-13 0 	0 	0 -1.13708e-13 	0 	3.94221e-14 0 	0 	0 1.03043e-12 	0 	-3.06027e-13 0 	0 	0 8.74109e-13 	0 	-2.17525e-13 0 	0 	0 9.31883e-13 	2.77602e-32 	-1.88246e-13 0 	0 	0 -8.89217e-13 	1.29009e-32 	1.45202e-13 0 	0 	0 7.25157e-17 	-6.02971e-38 	-8.79496e-18 0 	0 	0 7.65306e-13 	0 	-5.80267e-14 0 	0 	0 8.50598e-13 	-2.47733e-32 	-3.07426e-14 0 	0 	0 -6.40088e-13 	3.24731e-32 	-3.64993e-15 0 	0 	0 1.12411e-13 	-1.96763e-34 	5.25145e-15 0 	0 	0 -7.99232e-13 	0 	-6.14218e-14 0 	0 	0 1.46148e-14 	1.45268e-33 	1.6134e-15 0 	0 	0 1.3704e-14 	0 	1.99227e-15 0 	0 	0 -1.26757e-14 	0 	-2.28538e-15 0 	0 	0 -1.62702e-13 	1.25588e-32 	-3.45805e-14 0 	0 	0 3.04453e-13 	6.10383e-34 	7.45098e-14 0 	0 	0 5.51041e-13 	2.47581e-34 	1.52099e-13 0 	0 	0 -6.10391e-14 	7.6253e-34 	-1.84176e-14 0 	0 	0 2.17496e-13 	1.57053e-32 	6.70144e-14 0 	0 	0 -5.56216e-15 	-2.08422e-33 	-1.24341e-15 0 	0 	0
-2.1582e-12 	0 	1.27019e-12 0 	0 	0 -9.97253e-13 	-4.75843e-33 	5.23519e-13 0 	0 	0 1.43159e-13 	-1.4582e-33 	-6.61469e-14 0 	0 	0 6.66042e-13 	-7.90879e-32 	-2.68901e-13 0 	0 	0 -1.13708e-13 	0 	3.94221e-14 0 	0 	0 1.03043e-12 	0 	-3.06027e-13 0 	0 	0 8.74109e-13 	0 	-2.17525e-13 0 	0 	0 9.31883e-13 	2.77602e-32 	-1.88246e-13 0 	0 	0 -8.89217e-13 	1.29009e-32 	1.45202e-13 0 	0 	0 7.25157e-17 	-6.02971e-38 	-8.79496e-18 0 	0 	0 7.65306e-13 	0 	-5.80267e-14 0 	0 	0 8.50598e-13 	-2.47733e-32 	-3.07426e-14 0 	0 	0 -6.40088e-13 	3.24731e-32 	-3.64993e-15 0 	0 	0 1.12411e-13 	-1.96763e-34 	5.25145e-15 0 	0 	0 -7.99232e-13 	0 	-6.14218e-14 0 	0 	0 1.46148e-14 	1.45268e-33 	1.6134e-15 0 	0 	0 1.3704e-14 	0 	1.99227e-15 0 	0 	0 -1.26757e-14 	0 	-2.28538e-15 0 	0 	0 -1.62702e-13 	1.25588e-32 	-3.45805e-14 0 	0 	0 3.04453e-13 	6.10383e-34 	7.45098e-14 0 	0 	0 5.51041e-13 	2.47581e-34 	1.52099e-13 0 	0 	0 -6.10391e-14 	7.6253e-34 	-1.84176e-14 0 	0 	0 2.17496e-13 	1.57053e-32 	6.70144e-14 0 	0 	0 -5.56216e-15 	-2.08422e-33 	-1.24341e-15 0 	0 	0 -1.07732e-14 	0 	-2.21449e-14 0 	0 	0 -1.13118e-14 	0 	-2.32522e-14
9.97253e-13 	4.75843e-33 	-5.23519e-13 0 	0 	0 1.43159e-13 	-1.4582e-33 	-6.61469e-14 0 	0 	0 6.66042e-13 	-7.90879e-32 	-2.68901e-13 0 	0 	0 -1.13708e-13 	0 	3.94221e-14 0 	0 	0 1.03043e-12 	0 	-3.06027e-13 0 	0 	0 8.74109e-13 	0 	-2.17525e-13 0 	0 	0 9.31883e-13 	2.77602e-32 	-1.88246e-13 0 	0 	0 -8.89217e-13 	1.29009e-32 	1.45202e-13 0 	0 	0 7.25157e-17 	-6.02971e-38 	-8.79496e-18 0 	0 	0 7.65306e-13 	0 	-5.80267e-14 0 	0 	0 8.50598e-13 	-2.47733e-32 	-3.07426e-14 0 	0 	0 -6.40088e-13 	3.24731e-32 	-3.64993e-15 0 	0 	0 1.12411e-13 	-1.96763e-34 	5.25145e-15 0 	0 	0 -7.99232e-13 	0 	-6.14218e-14 0 	0 	0 1.46148e-14 	1.45268e-33 	1.6134e-15 0 	0 	0 1.3704e-14 	0 	1.99227e-15 0 	0 	0 -1.26757e-14 	0 	-2.28538e-15 0 	0 	0 -1.62702e-13 	1.25588e-32 	-3.45805e-14 0 	0 	0 3.04453e-13 	6.10383e-34 	7.45098e-14 0 	0 	0 5.51041e-13 	2.47581e-34 	1.52099e-13 0 	0 	0 -6.10391e-14 	7.6253e-34 	-1.84176e-14 0 	0 	0 2.17496e-13 	1.57053e-32 	6.70144e-14 0 	0 	0 -5.56216e-15 	-2.08422e-33 	-1.24341e-15 0 	0 	0 -1.07732e-14 	0 	-2.21449e-14 0 	0 	0 -1.13118e-14 	0 	-2.32522e-14 0 	0 	0 -1.13118e-14 	0 	-2.32522e-14