/*--------------------------------*- C++ -*----------------------------------*\
| =========                 |                                                 |
| \\      /  F ield         | OpenFOAM: The Open Source CFD Toolbox           |
|  \\    /   O peration     | Version:  2.3.0                                 |
|   \\  /    A nd           | Web:      www.OpenFOAM.org                      |
|    \\/     M anipulation  |                                                 |
\*---------------------------------------------------------------------------*/
FoamFile
{
    version     2.0;
    format      ascii;
    class       volScalarField;
    location    "300";
    object      nut;
}
// * * * * * * * * * * * * * * * * * * * * * * * * * * * * * * * * * * * * * //

dimensions      [0 2 -1 0 0 0 0];

internalField   nonuniform List<scalar> 
28552
(
1.77776e-05
1.56899e-05
1.56505e-05
1.5653e-05
1.56595e-05
1.59544e-05
1.65492e-05
1.74364e-05
1.84959e-05
2.00799e-05
2.21157e-05
2.4697e-05
2.7943e-05
3.21093e-05
3.64182e-05
4.13543e-05
4.71489e-05
3.84391e-05
3.13261e-05
2.57029e-05
2.12289e-05
1.77119e-05
1.48617e-05
1.27277e-05
1.0865e-05
9.61392e-06
8.23497e-06
7.21495e-06
6.23252e-06
5.69162e-06
5.579e-06
6.98244e-06
8.25705e-06
5.38462e-07
1.92724e-05
1.65265e-05
1.68966e-05
1.70184e-05
1.70303e-05
1.73979e-05
1.80817e-05
1.90592e-05
2.03889e-05
2.21316e-05
2.43526e-05
2.71482e-05
3.06464e-05
3.51226e-05
3.96815e-05
4.48894e-05
4.72121e-05
3.83808e-05
3.13776e-05
2.58294e-05
2.13988e-05
1.79162e-05
1.50759e-05
1.29625e-05
1.11035e-05
9.80517e-06
8.41704e-06
7.31977e-06
6.3483e-06
5.7426e-06
5.62711e-06
7.02585e-06
8.36909e-06
6.26062e-07
2.02194e-05
1.68846e-05
1.75238e-05
1.771e-05
1.77735e-05
1.82574e-05
1.90724e-05
2.01904e-05
2.16782e-05
2.35991e-05
2.60234e-05
2.9054e-05
3.2825e-05
3.76272e-05
4.25106e-05
4.80654e-05
4.69919e-05
3.83186e-05
3.14218e-05
2.5948e-05
2.15607e-05
1.81152e-05
1.52868e-05
1.31973e-05
1.13449e-05
9.98592e-06
8.5906e-06
7.42088e-06
6.46319e-06
5.79767e-06
5.7291e-06
7.1092e-06
8.43693e-06
7.37207e-07
2.13325e-05
1.7399e-05
1.84286e-05
1.86848e-05
1.88314e-05
1.94505e-05
2.03951e-05
2.16538e-05
2.33045e-05
2.54104e-05
2.80457e-05
3.13278e-05
3.54022e-05
4.05739e-05
4.58176e-05
5.17597e-05
4.67577e-05
3.82384e-05
3.14462e-05
2.60482e-05
2.17054e-05
1.83012e-05
1.54882e-05
1.34284e-05
1.15862e-05
1.01451e-05
8.74298e-06
7.50573e-06
6.56402e-06
5.85203e-06
5.81146e-06
7.21438e-06
8.46053e-06
8.52435e-07
2.26489e-05
1.80921e-05
1.9576e-05
1.98677e-05
2.00983e-05
2.08602e-05
2.19396e-05
2.3347e-05
2.51731e-05
2.7481e-05
3.03515e-05
3.39041e-05
3.82948e-05
4.38519e-05
4.94659e-05
5.58089e-05
4.66302e-05
3.82408e-05
3.15356e-05
2.62016e-05
2.18948e-05
1.85261e-05
1.57261e-05
1.36932e-05
1.18406e-05
1.03055e-05
8.89516e-06
7.59561e-06
6.66589e-06
5.9097e-06
5.88878e-06
7.29836e-06
8.48971e-06
1.00362e-06
2.39289e-05
1.88165e-05
2.08767e-05
2.11779e-05
2.15035e-05
2.24237e-05
2.36541e-05
2.52292e-05
2.72518e-05
2.9785e-05
3.29179e-05
3.67816e-05
4.15443e-05
4.75623e-05
5.36349e-05
5.68917e-05
4.65262e-05
3.82602e-05
3.16377e-05
2.63664e-05
2.20949e-05
1.87633e-05
1.5978e-05
1.39633e-05
1.20736e-05
1.04502e-05
9.03381e-06
7.67557e-06
6.76011e-06
5.96517e-06
5.96188e-06
7.39577e-06
8.52538e-06
1.20994e-06
2.53741e-05
1.95291e-05
2.21697e-05
2.24389e-05
2.28467e-05
2.38984e-05
2.52519e-05
2.69673e-05
2.91553e-05
3.18793e-05
3.53705e-05
3.95005e-05
4.45754e-05
5.09729e-05
5.74083e-05
5.66985e-05
4.6487e-05
3.83314e-05
3.17824e-05
2.65681e-05
2.2328e-05
1.90313e-05
1.62604e-05
1.422e-05
1.2299e-05
1.05923e-05
9.17017e-06
7.75903e-06
6.85451e-06
6.02511e-06
6.03235e-06
7.48699e-06
8.57782e-06
1.49663e-06
2.88584e-05
2.05518e-05
2.36788e-05
2.40531e-05
2.45706e-05
2.57951e-05
2.73193e-05
2.92311e-05
3.16442e-05
3.46229e-05
3.82722e-05
4.27391e-05
4.82107e-05
5.50952e-05
6.20028e-05
5.65866e-05
4.65132e-05
3.84573e-05
3.19739e-05
2.68115e-05
2.25996e-05
1.9336e-05
1.65796e-05
1.44691e-05
1.25199e-05
1.07355e-05
9.30692e-06
7.84895e-06
6.95136e-06
6.09051e-06
6.10443e-06
7.57766e-06
8.6503e-06
1.92934e-06
3.17587e-05
2.15933e-05
2.53344e-05
2.55058e-05
2.61359e-05
2.75146e-05
2.91828e-05
3.1263e-05
3.38722e-05
3.70787e-05
4.10012e-05
4.58009e-05
5.21925e-05
5.96237e-05
6.70687e-05
5.65172e-05
4.65705e-05
3.86074e-05
3.21851e-05
2.70731e-05
2.28891e-05
1.96604e-05
1.69124e-05
1.46939e-05
1.27183e-05
1.08615e-05
9.42839e-06
7.93005e-06
7.03818e-06
6.15664e-06
6.1669e-06
7.68663e-06
8.6899e-06
2.59885e-06
3.05208e-05
2.24597e-05
2.67516e-05
2.71111e-05
2.79256e-05
2.94807e-05
3.13173e-05
3.35968e-05
3.64337e-05
3.99009e-05
4.41285e-05
4.92886e-05
5.56035e-05
6.3572e-05
6.87842e-05
5.65312e-05
4.66939e-05
3.88118e-05
3.24423e-05
2.73759e-05
2.32172e-05
2.00227e-05
1.72252e-05
1.49046e-05
1.29024e-05
1.09778e-05
9.53874e-06
8.00545e-06
7.11523e-06
6.21722e-06
6.21953e-06
7.79589e-06
8.72775e-06
3.73687e-06
2.9875e-05
2.34165e-05
2.84147e-05
2.86413e-05
2.99048e-05
3.16423e-05
3.36537e-05
3.61536e-05
3.92421e-05
4.29991e-05
4.75683e-05
5.31328e-05
5.9931e-05
6.85029e-05
6.86565e-05
5.65568e-05
4.68279e-05
3.90278e-05
3.27125e-05
2.7695e-05
2.35647e-05
2.03679e-05
1.75088e-05
1.50922e-05
1.30665e-05
1.10773e-05
9.6369e-06
8.07066e-06
7.18662e-06
6.2741e-06
6.27255e-06
7.89293e-06
8.86452e-06
6.10667e-06
3.13807e-05
2.45613e-05
3.02399e-05
3.03486e-05
3.16123e-05
3.35052e-05
3.56795e-05
3.87307e-05
4.20665e-05
4.61108e-05
5.10201e-05
5.699e-05
6.42743e-05
7.3463e-05
6.87702e-05
5.67877e-05
4.71382e-05
3.93966e-05
3.31171e-05
2.81326e-05
2.40206e-05
2.07639e-05
1.78461e-05
1.53345e-05
1.32788e-05
1.12312e-05
9.77711e-06
8.1823e-06
7.29147e-06
6.35249e-06
6.35024e-06
7.96207e-06
9.38345e-06
1.58244e-05
3.29433e-05
2.58166e-05
3.21581e-05
3.21648e-05
3.37208e-05
3.58084e-05
3.81852e-05
4.11625e-05
4.51884e-05
4.95772e-05
5.49005e-05
6.13721e-05
6.9272e-05
7.92549e-05
6.88722e-05
5.70039e-05
4.74328e-05
3.97511e-05
3.35098e-05
2.85628e-05
2.4473e-05
2.11085e-05
1.81367e-05
1.55368e-05
1.34562e-05
1.13514e-05
9.8875e-06
8.26756e-06
7.36923e-06
6.42377e-06
6.40458e-06
8.11456e-06
1.26132e-05
3.88508e-05
3.45544e-05
2.71833e-05
3.41597e-05
3.40431e-05
3.59384e-05
3.82358e-05
4.08402e-05
4.44767e-05
4.84034e-05
5.31501e-05
5.89052e-05
6.59041e-05
7.44556e-05
8.35994e-05
6.89829e-05
5.7225e-05
4.77313e-05
4.01113e-05
3.39111e-05
2.90072e-05
2.48808e-05
2.14015e-05
1.83778e-05
1.5699e-05
1.35944e-05
1.14428e-05
9.96828e-06
8.33798e-06
7.42953e-06
6.4907e-06
6.44855e-06
8.32277e-06
2.24497e-05
8.28128e-05
3.62226e-05
2.86146e-05
3.61605e-05
3.59365e-05
3.82017e-05
4.07283e-05
4.39552e-05
4.74557e-05
5.16956e-05
5.68211e-05
6.30369e-05
7.06046e-05
7.98708e-05
8.37513e-05
6.92624e-05
5.75983e-05
4.81688e-05
4.06e-05
3.44337e-05
2.95515e-05
2.53235e-05
2.17306e-05
1.86541e-05
1.58976e-05
1.37646e-05
1.15693e-05
1.00806e-05
8.43246e-06
7.51666e-06
6.5608e-06
6.51044e-06
8.42556e-06
2.91785e-05
0.000152197
3.79042e-05
3.02439e-05
3.82049e-05
3.79485e-05
4.06189e-05
4.37403e-05
4.6836e-05
5.06531e-05
5.5266e-05
6.08498e-05
6.76315e-05
7.59093e-05
8.60738e-05
8.39721e-05
6.95971e-05
5.8017e-05
4.86447e-05
4.11227e-05
3.49879e-05
3.00631e-05
2.57437e-05
2.20438e-05
1.89162e-05
1.6085e-05
1.39237e-05
1.16856e-05
1.01811e-05
8.51952e-06
7.59004e-06
6.63331e-06
6.56321e-06
9.09394e-06
5.83403e-05
0.00024351
3.95741e-05
3.19971e-05
4.03772e-05
4.03636e-05
4.3464e-05
4.65121e-05
4.99225e-05
5.41002e-05
5.914e-05
6.52563e-05
7.27016e-05
8.18262e-05
9.30874e-05
8.41517e-05
6.98951e-05
5.84055e-05
4.90982e-05
4.16325e-05
3.55398e-05
3.04921e-05
2.6088e-05
2.2293e-05
1.91187e-05
1.62248e-05
1.40383e-05
1.177e-05
1.02492e-05
8.59002e-06
7.64168e-06
6.69801e-06
6.65743e-06
1.3318e-05
0.000104621
0.000339256
4.15723e-05
3.40704e-05
4.27624e-05
4.2396e-05
4.59301e-05
4.92732e-05
5.30251e-05
5.75752e-05
6.30602e-05
6.97344e-05
7.7883e-05
8.79166e-05
0.000100688
8.44934e-05
7.0342e-05
5.89324e-05
4.96823e-05
4.22662e-05
3.6122e-05
3.09374e-05
2.64508e-05
2.25643e-05
1.9343e-05
1.63891e-05
1.41743e-05
1.18771e-05
1.03392e-05
8.67517e-06
7.71213e-06
6.76644e-06
6.71771e-06
1.72531e-05
0.000137513
0.00041958
4.33711e-05
3.61687e-05
4.50002e-05
4.46616e-05
4.8659e-05
5.23493e-05
5.65114e-05
6.14999e-05
6.75063e-05
7.48286e-05
8.37781e-05
9.52416e-05
0.000102198
8.47759e-05
7.07282e-05
5.94013e-05
5.02135e-05
4.28478e-05
3.65701e-05
3.12638e-05
2.67028e-05
2.27372e-05
1.94769e-05
1.64734e-05
1.424e-05
1.19212e-05
1.03641e-05
8.71484e-06
7.73031e-06
6.84405e-06
7.75438e-06
3.67039e-05
0.000195632
0.000470558
4.51636e-05
3.83902e-05
4.72687e-05
4.69654e-05
5.14068e-05
5.54374e-05
6.00101e-05
6.54118e-05
7.19092e-05
8.05119e-05
8.99216e-05
0.000101359
0.00010252
8.52201e-05
7.12644e-05
6.00091e-05
5.08743e-05
4.34612e-05
3.70659e-05
3.1648e-05
2.70181e-05
2.29802e-05
1.96789e-05
1.66307e-05
1.43703e-05
1.20323e-05
1.04568e-05
8.79969e-06
7.80084e-06
6.90007e-06
7.88e-06
3.9384e-05
0.000205367
0.000496714
4.69568e-05
4.07818e-05
4.96031e-05
4.93861e-05
5.42828e-05
5.87139e-05
6.37598e-05
6.96402e-05
7.73499e-05
8.57847e-05
9.59718e-05
0.000108361
0.00010272
8.55399e-05
7.1674e-05
6.04921e-05
5.14148e-05
4.38952e-05
3.73975e-05
3.18844e-05
2.71965e-05
2.30974e-05
1.9767e-05
1.66745e-05
1.43935e-05
1.20479e-05
1.04535e-05
8.82543e-06
7.80016e-06
7.11798e-06
1.16711e-05
6.82235e-05
0.000259104
0.000506291
4.87977e-05
4.33275e-05
5.19805e-05
5.18458e-05
5.71634e-05
6.19776e-05
6.80518e-05
7.43033e-05
8.17426e-05
9.0739e-05
0.000101609
0.000114837
0.000102981
8.59142e-05
7.21352e-05
6.10249e-05
5.19631e-05
4.43119e-05
3.77217e-05
3.21247e-05
2.7383e-05
2.32321e-05
1.98715e-05
1.67505e-05
1.44504e-05
1.20969e-05
1.04884e-05
8.86187e-06
7.82206e-06
7.16142e-06
1.31619e-05
8.01697e-05
0.000278858
0.000495139
5.06509e-05
4.60216e-05
5.44368e-05
5.48752e-05
6.06031e-05
6.58259e-05
7.17644e-05
7.84555e-05
8.64054e-05
9.60315e-05
0.000107678
0.000121892
0.000103299
8.63401e-05
7.26438e-05
6.16011e-05
5.2475e-05
4.47071e-05
3.80344e-05
3.23621e-05
2.75726e-05
2.33744e-05
1.99866e-05
1.68379e-05
1.45204e-05
1.2156e-05
1.05348e-05
8.90831e-06
7.85015e-06
7.2094e-06
1.48741e-05
9.18494e-05
0.000297931
0.000481612
5.30053e-05
4.91298e-05
5.73496e-05
5.73974e-05
6.35114e-05
6.91734e-05
7.56085e-05
8.27783e-05
9.12812e-05
0.000101576
0.000114036
0.000122453
0.000103551
8.66917e-05
7.30724e-05
6.20962e-05
5.28491e-05
4.49752e-05
3.82277e-05
3.24903e-05
2.76477e-05
2.34092e-05
1.9998e-05
1.68379e-05
1.45003e-05
1.21494e-05
1.05021e-05
8.90991e-06
7.85913e-06
7.95818e-06
2.40176e-05
0.000119918
0.000344633
0.000463516
5.49125e-05
5.20789e-05
5.98356e-05
5.99413e-05
6.63354e-05
7.24177e-05
7.93e-05
8.68918e-05
9.58614e-05
0.000106721
0.000119857
0.00012274
0.000103938
8.71646e-05
7.36138e-05
6.26415e-05
5.32735e-05
4.53005e-05
3.84806e-05
3.26816e-05
2.77958e-05
2.35217e-05
2.00836e-05
1.69065e-05
1.45502e-05
1.2196e-05
1.05343e-05
8.93227e-06
7.87692e-06
7.98996e-06
2.59132e-05
0.000131445
0.000371426
0.000440216
5.67848e-05
5.52219e-05
6.23667e-05
6.27474e-05
6.93673e-05
7.59679e-05
8.33322e-05
9.14148e-05
0.00010093
0.000112456
0.000126416
0.000122974
0.00010428
8.76016e-05
7.41259e-05
6.3103e-05
5.36303e-05
4.55715e-05
3.86894e-05
3.28374e-05
2.79154e-05
2.36101e-05
2.01508e-05
1.69572e-05
1.45872e-05
1.22298e-05
1.05513e-05
8.94712e-06
7.88882e-06
8.42024e-06
3.21707e-05
0.000152586
0.000421252
0.000423638
5.88215e-05
5.8322e-05
6.495e-05
6.55155e-05
7.23674e-05
7.95135e-05
8.73703e-05
9.59806e-05
0.000106067
0.000118291
0.000133081
0.000123163
0.000104572
8.79861e-05
7.45844e-05
6.34666e-05
5.38985e-05
4.57633e-05
3.88253e-05
3.29251e-05
2.79644e-05
2.36371e-05
2.01578e-05
1.69612e-05
1.45731e-05
1.2228e-05
1.05283e-05
8.95001e-06
7.93422e-06
9.79147e-06
4.45119e-05
0.000186416
0.000497597
0.000407289
6.09217e-05
6.15933e-05
6.76231e-05
6.84244e-05
7.54364e-05
8.31451e-05
9.14625e-05
0.000100589
0.00011122
0.000124113
0.00013972
0.000123387
0.000104899
8.84057e-05
7.5053e-05
6.38192e-05
5.41644e-05
4.59617e-05
3.89722e-05
3.3034e-05
2.80428e-05
2.3697e-05
2.01984e-05
1.69963e-05
1.45932e-05
1.22516e-05
1.05344e-05
8.9638e-06
7.95423e-06
1.05503e-05
5.237e-05
0.000213527
0.00051399
0.000391209
6.31186e-05
6.4879e-05
7.03604e-05
7.14638e-05
7.86127e-05
8.69649e-05
9.57487e-05
0.000105472
0.000116722
0.000130418
0.000144069
0.000123541
0.000105159
8.87636e-05
7.53987e-05
6.40514e-05
5.4309e-05
4.60478e-05
3.90148e-05
3.30472e-05
2.80313e-05
2.36767e-05
2.01609e-05
1.6967e-05
1.45462e-05
1.22236e-05
1.04899e-05
8.95571e-06
8.19759e-06
1.46334e-05
7.56587e-05
0.000263594
0.000555158
0.000376658
6.54174e-05
6.80544e-05
7.31271e-05
7.44249e-05
8.17135e-05
9.06761e-05
9.98891e-05
0.000110185
0.000122
0.000136434
0.000144173
0.00012376
0.000105478
8.91741e-05
7.57425e-05
6.4299e-05
5.44833e-05
4.61686e-05
3.90857e-05
3.30908e-05
2.805e-05
2.3687e-05
2.01542e-05
1.6965e-05
1.45291e-05
1.2218e-05
1.0471e-05
8.95658e-06
8.35209e-06
1.7276e-05
9.02997e-05
0.0003059
0.000606181
0.000361684
6.77338e-05
7.12452e-05
7.59442e-05
7.74678e-05
8.48365e-05
9.44277e-05
0.000104026
0.000114889
0.000127225
0.000142347
0.000144362
0.000124059
0.000105873
8.96552e-05
7.61142e-05
6.45822e-05
5.46979e-05
4.63331e-05
3.9209e-05
3.31874e-05
2.81209e-05
2.37458e-05
2.01958e-05
1.70034e-05
1.4554e-05
1.22437e-05
1.04837e-05
8.96357e-06
8.36116e-06
1.78626e-05
9.63395e-05
0.000340045
0.000678626
0.000354958
7.04325e-05
7.50067e-05
7.93749e-05
8.13089e-05
8.87583e-05
9.91557e-05
0.000109173
0.000120739
0.000133651
0.000149514
0.00014446
0.000124274
0.000106189
9.00324e-05
7.63854e-05
6.47733e-05
5.48207e-05
4.64142e-05
3.92553e-05
3.32139e-05
2.81265e-05
2.37458e-05
2.01814e-05
1.69937e-05
1.45304e-05
1.22304e-05
1.04576e-05
8.96904e-06
8.73101e-06
2.34155e-05
0.000120145
0.000401248
0.000765755
0.000353491
7.27677e-05
7.80679e-05
8.21793e-05
8.44711e-05
9.18989e-05
0.000103003
0.00011327
0.000125446
0.000138793
0.000155293
0.000144522
0.000124457
0.000106469
9.03362e-05
7.65954e-05
6.49159e-05
5.49107e-05
4.64709e-05
3.92818e-05
3.32278e-05
2.81211e-05
2.37412e-05
2.01619e-05
1.6984e-05
1.45056e-05
1.22188e-05
1.04332e-05
8.98297e-06
9.20608e-06
2.97558e-05
0.00014427
0.000467421
0.000867865
0.000352652
7.52502e-05
8.09497e-05
8.51e-05
8.76192e-05
9.50957e-05
0.000106894
0.000117386
0.000130213
0.000143991
0.000161206
0.000144543
0.000124595
0.000106712
9.05736e-05
7.67459e-05
6.50057e-05
5.49527e-05
4.64855e-05
3.92695e-05
3.32082e-05
2.80842e-05
2.37104e-05
2.01169e-05
1.69538e-05
1.44608e-05
1.21907e-05
1.03972e-05
9.02024e-06
1.02025e-05
4.03114e-05
0.000178169
0.000555588
0.00100726
0.000356058
7.77036e-05
8.37077e-05
8.80386e-05
9.0792e-05
9.8315e-05
0.000110783
0.00012147
0.000134962
0.000149161
0.000166678
0.000144633
0.000124801
0.000107025
9.08377e-05
7.69301e-05
6.51356e-05
5.50372e-05
4.65454e-05
3.93022e-05
3.32336e-05
2.80916e-05
2.372e-05
2.01132e-05
1.69571e-05
1.44523e-05
1.21894e-05
1.03863e-05
9.03412e-06
1.05972e-05
4.54795e-05
0.000197552
0.000635977
0.0011525
0.000365772
8.01398e-05
8.63753e-05
9.10061e-05
9.40292e-05
0.000101601
0.000114782
0.000125632
0.000139855
0.000154487
0.000166559
0.000144652
0.000124946
0.00010728
9.10185e-05
7.704e-05
6.51996e-05
5.50626e-05
4.65526e-05
3.92875e-05
3.32165e-05
2.80603e-05
2.36954e-05
2.00773e-05
1.6933e-05
1.44169e-05
1.21658e-05
1.03587e-05
9.10102e-06
1.2037e-05
5.84278e-05
0.000235633
0.000742894
0.00129549
0.000382357
8.27618e-05
8.88146e-05
9.42007e-05
9.72129e-05
0.000105021
0.000118819
0.000129846
0.000144797
0.00015983
0.000166416
0.000144652
0.000125073
0.000107489
9.11589e-05
7.71178e-05
6.52388e-05
5.50686e-05
4.65456e-05
3.92617e-05
3.31923e-05
2.80232e-05
2.36679e-05
2.00391e-05
1.69087e-05
1.43815e-05
1.21433e-05
1.03342e-05
9.19457e-06
1.3803e-05
7.21353e-05
0.000275799
0.000860229
0.00143196
0.000402203
8.54317e-05
9.10975e-05
9.7437e-05
0.000100372
0.00010849
0.000122841
0.000134027
0.000149687
0.000165072
0.000166255
0.000144636
0.000125188
0.000107652
9.12662e-05
7.71693e-05
6.52584e-05
5.50591e-05
4.65278e-05
3.92273e-05
3.31624e-05
2.79818e-05
2.36377e-05
1.99991e-05
1.68828e-05
1.43455e-05
1.21195e-05
1.03123e-05
9.3318e-06
1.61955e-05
8.81993e-05
0.000322579
0.000993065
0.00156366
0.000426861
8.80283e-05
9.32845e-05
0.000100662
0.000103506
0.000111974
0.000126813
0.000138149
0.000154502
0.000170211
0.000166101
0.000144626
0.000125305
0.000107786
9.13518e-05
7.72032e-05
6.52642e-05
5.50381e-05
4.65009e-05
3.91851e-05
3.31261e-05
2.79348e-05
2.36023e-05
1.99547e-05
1.68523e-05
1.4306e-05
1.20922e-05
1.02932e-05
9.55899e-06
1.97492e-05
0.000108244
0.000379329
0.00114081
0.00168753
0.00045307
9.07085e-05
9.53253e-05
0.000104005
0.000106608
0.000115584
0.000130788
0.000142335
0.000159361
0.000175428
0.00016587
0.000144549
0.000125363
0.000107836
9.13709e-05
7.71797e-05
6.52209e-05
5.4975e-05
4.6438e-05
3.91121e-05
3.30636e-05
2.78654e-05
2.3548e-05
1.98942e-05
1.68086e-05
1.42552e-05
1.20561e-05
1.02806e-05
9.979e-06
2.53836e-05
0.000134375
0.000450306
0.00130866
0.00180356
0.000483129
9.33716e-05
9.73663e-05
0.000107343
0.000109711
0.000119263
0.000134752
0.000146521
0.000164183
0.00018059
0.000165635
0.000144475
0.000125426
0.00010787
9.13842e-05
7.71578e-05
6.51856e-05
5.49235e-05
4.63904e-05
3.90557e-05
3.30191e-05
2.78145e-05
2.35115e-05
1.98516e-05
1.67801e-05
1.42204e-05
1.20326e-05
1.02765e-05
1.03537e-05
3.03969e-05
0.00015667
0.000522003
0.00148044
0.00190801
0.000512343
9.59063e-05
9.93671e-05
0.000110634
0.00011281
0.000122978
0.000138666
0.000150685
0.000168935
0.000185688
0.00016535
0.000144349
0.000125433
0.000107823
9.13259e-05
7.70682e-05
6.50859e-05
5.48116e-05
4.6285e-05
3.8946e-05
3.29233e-05
2.77169e-05
2.34308e-05
1.97687e-05
1.67148e-05
1.41519e-05
1.19833e-05
1.03158e-05
1.16733e-05
4.38072e-05
0.00020207
0.000632344
0.00164504
0.00200071
0.000540061
9.83983e-05
0.000101231
0.000113917
0.000115832
0.000126706
0.000142457
0.000154761
0.000173522
0.000188018
0.000165064
0.000144231
0.000125434
0.000107775
9.12769e-05
7.69951e-05
6.50092e-05
5.47262e-05
4.62096e-05
3.88671e-05
3.28599e-05
2.7651e-05
2.33814e-05
1.97165e-05
1.66775e-05
1.41113e-05
1.19567e-05
1.03492e-05
1.25854e-05
5.286e-05
0.000233672
0.000733197
0.00177899
0.00209433
0.000573678
0.000100892
0.000103093
0.000117235
0.000118816
0.000130493
0.000146144
0.000158781
0.000177935
0.000187455
0.000164708
0.000144056
0.000125362
0.00010767
9.1186e-05
7.68899e-05
6.49081e-05
5.46226e-05
4.61206e-05
3.87785e-05
3.27888e-05
2.75802e-05
2.33269e-05
1.96613e-05
1.66359e-05
1.40682e-05
1.19285e-05
1.0415e-05
1.40098e-05
6.56318e-05
0.000275586
0.000860017
0.0019503
0.00217734
0.000602404
0.000103291
0.000105025
0.000120502
0.000121855
0.000134371
0.000149849
0.000162859
0.000182342
0.000186799
0.000164264
0.000143795
0.000125183
0.000107464
9.10091e-05
7.67056e-05
6.47333e-05
5.4452e-05
4.59686e-05
3.86336e-05
3.26643e-05
2.74621e-05
2.32287e-05
1.95672e-05
1.65598e-05
1.3995e-05
1.18887e-05
1.067e-05
1.78972e-05
9.20758e-05
0.000346793
0.00103659
0.00210788
0.00224614
0.000629461
0.000105511
0.000106868
0.00012362
0.000124827
0.000138141
0.000153367
0.000166735
0.000186482
0.000186184
0.000163863
0.000143575
0.000125029
0.000107292
9.08654e-05
7.65573e-05
6.45972e-05
5.43203e-05
4.5857e-05
3.85274e-05
3.25791e-05
2.73809e-05
2.31664e-05
1.95066e-05
1.65147e-05
1.39509e-05
1.18695e-05
1.08666e-05
2.07906e-05
0.000110671
0.000405704
0.00120281
0.00225402
0.00230733
0.000655363
0.000107666
0.000108673
0.000126688
0.000127731
0.000141914
0.000156715
0.00017052
0.000190411
0.000185466
0.000163368
0.000143266
0.000124774
0.00010703
9.06478e-05
7.63438e-05
6.44026e-05
5.41375e-05
4.56985e-05
3.83806e-05
3.24559e-05
2.7267e-05
2.30732e-05
1.94194e-05
1.64446e-05
1.38867e-05
1.18568e-05
1.14072e-05
2.75492e-05
0.000145246
0.000495106
0.00139581
0.00241714
0.00236515
0.000679141
0.000109744
0.000110572
0.000129719
0.000130739
0.000145729
0.000160101
0.000174347
0.000194369
0.000184726
0.000162843
0.000142919
0.000124459
0.000106707
9.03711e-05
7.60722e-05
6.415e-05
5.38996e-05
4.54856e-05
3.81843e-05
3.2284e-05
2.71096e-05
2.29386e-05
1.92958e-05
1.63418e-05
1.38003e-05
1.19085e-05
1.29686e-05
4.26535e-05
0.000202578
0.000619782
0.00159195
0.00255894
0.0023973
0.000693369
0.000111618
0.000112365
0.000132606
0.000133615
0.000149355
0.000163196
0.000177886
0.000197968
0.000184035
0.000162367
0.000142614
0.000124175
0.00010642
9.01281e-05
7.58349e-05
6.39324e-05
5.36959e-05
4.53068e-05
3.80204e-05
3.2144e-05
2.69823e-05
2.28327e-05
1.91992e-05
1.62637e-05
1.37396e-05
1.19989e-05
1.46502e-05
5.70596e-05
0.000249717
0.000733614
0.00172387
0.00267612
0.00244202
0.00071294
0.000113495
0.000114218
0.000135515
0.000136434
0.000152926
0.00016609
0.000181255
0.000201273
0.000183235
0.000161802
0.000142235
0.000123822
0.000106082
8.98504e-05
7.55746e-05
6.37002e-05
5.34849e-05
4.51248e-05
3.78575e-05
3.2006e-05
2.68596e-05
2.27302e-05
1.91079e-05
1.61887e-05
1.3688e-05
1.2149e-05
1.69216e-05
7.44555e-05
0.000300419
0.000858945
0.00189197
0.0028114
0.0024754
0.000723791
0.000115336
0.000116267
0.00013836
0.000139304
0.000156473
0.000168892
0.00018449
0.000204331
0.000182357
0.000161175
0.000141802
0.000123419
0.000105712
8.95512e-05
7.53019e-05
6.34616e-05
5.32729e-05
4.49446e-05
3.76997e-05
3.18739e-05
2.67447e-05
2.26351e-05
1.90251e-05
1.6122e-05
1.36484e-05
1.23403e-05
1.94593e-05
9.18633e-05
0.000348032
0.000990618
0.00203788
0.0029388
0.00253479
0.000752176
0.000116905
0.00011821
0.000140894
0.000141951
0.000159619
0.000171196
0.000187128
0.000204713
0.000181517
0.000160585
0.000141401
0.00012305
0.000105376
8.9285e-05
7.50617e-05
6.32557e-05
5.30918e-05
4.47949e-05
3.75699e-05
3.17691e-05
2.66546e-05
2.25635e-05
1.89635e-05
1.60743e-05
1.36235e-05
1.25153e-05
2.1686e-05
0.000106552
0.000389845
0.00111968
0.00221547
0.00307876
0.00256561
0.000767184
0.000118472
0.000120227
0.000143429
0.00014462
0.000162682
0.00017341
0.000189672
0.00020337
0.00018047
0.000159793
0.000140793
0.000122481
0.000104855
8.88505e-05
7.46656e-05
6.29008e-05
5.27757e-05
4.45159e-05
3.73255e-05
3.15543e-05
2.64679e-05
2.24007e-05
1.88224e-05
1.59604e-05
1.36194e-05
1.35581e-05
3.19941e-05
0.000155781
0.000495514
0.00131443
0.00239661
0.00319328
0.00256952
0.000773245
0.00011981
0.000122469
0.000146009
0.000147445
0.000165748
0.000175637
0.000192142
0.000201891
0.000179312
0.000158907
0.000140099
0.000121852
0.000104294
8.83918e-05
7.42576e-05
6.25438e-05
5.24652e-05
4.42488e-05
3.70968e-05
3.13597e-05
2.63028e-05
2.22621e-05
1.87058e-05
1.58745e-05
1.36641e-05
1.47614e-05
4.22274e-05
0.000195724
0.000582704
0.00149637
0.0025307
0.00326598
0.00257355
0.000776864
0.000126172
0.000124808
0.000148707
0.000150272
0.000168494
0.000177545
0.000194166
0.000200409
0.000178146
0.000158004
0.000139382
0.000121212
0.000103724
8.79215e-05
7.38382e-05
6.21746e-05
5.21429e-05
4.39692e-05
3.68565e-05
3.11524e-05
2.6126e-05
2.21109e-05
1.85788e-05
1.57879e-05
1.38145e-05
1.69946e-05
5.88692e-05
0.000249878
0.000692412
0.00169526
0.00269462
0.00336006
0.00258707
0.000781782
0.000139894
0.000127948
0.000151431
0.00015318
0.000171035
0.000179336
0.000195999
0.000198853
0.000176911
0.000157033
0.000138593
0.000120519
0.000103109
8.74101e-05
7.33819e-05
6.17709e-05
5.17901e-05
4.36604e-05
3.65909e-05
3.09208e-05
2.59287e-05
2.19406e-05
1.84385e-05
1.5713e-05
1.4188e-05
2.10213e-05
8.38114e-05
0.00031637
0.000819122
0.00183694
0.00284663
0.00343524
0.00259055
0.00078342
0.000142493
0.000130662
0.000154215
0.000156161
0.000173502
0.000181184
0.000197873
0.00019712
0.000175528
0.000155932
0.000137687
0.000119744
0.000102434
8.68544e-05
7.28953e-05
6.13465e-05
5.14258e-05
4.33462e-05
3.63256e-05
3.06933e-05
2.57385e-05
2.17798e-05
1.83118e-05
1.56738e-05
1.47526e-05
2.60926e-05
0.000110542
0.000378436
0.000941108
0.00196358
0.00298264
0.00350413
0.00260481
0.000789106
0.000141245
0.000133317
0.000156902
0.000159056
0.000175705
0.000182846
0.000199514
0.000195325
0.000174086
0.000154771
0.00013672
0.00011893
0.000101728
8.62708e-05
7.2385e-05
6.09007e-05
5.10433e-05
4.3015e-05
3.60462e-05
3.04524e-05
2.5537e-05
2.16086e-05
1.81826e-05
1.56851e-05
1.57734e-05
3.41019e-05
0.000146448
0.000453704
0.00108456
0.00211996
0.00313817
0.00354833
0.00261167
0.000791012
0.000140509
0.000136301
0.000159747
0.000162058
0.000177849
0.000184519
0.000201107
0.000193452
0.000172565
0.000153527
0.00013567
0.000118056
0.000100969
8.56364e-05
7.18284e-05
6.04109e-05
5.06214e-05
4.26466e-05
3.57262e-05
3.01795e-05
2.53088e-05
2.14146e-05
1.80504e-05
1.582e-05
1.77999e-05
4.77503e-05
0.000196648
0.00054933
0.00125797
0.00227062
0.00327606
0.00358062
0.00260525
0.000788863
0.000139698
0.000138593
0.000161405
0.000163764
0.000178424
0.000184612
0.000200902
0.000191395
0.00017088
0.00015213
0.00013448
0.00011708
0.00010013
8.49377e-05
7.12216e-05
5.98808e-05
5.01694e-05
4.22537e-05
3.53974e-05
2.98909e-05
2.50613e-05
2.12183e-05
1.79442e-05
1.61528e-05
2.10483e-05
6.65777e-05
0.000253899
0.000652664
0.00144321
0.00241864
0.00340251
0.00361233
0.00259842
0.00078485
0.000137946
0.000142379
0.000164635
0.000167053
0.000180628
0.000186487
0.00020258
0.000189214
0.000169074
0.00015061
0.000133169
0.000115986
9.92159e-05
8.41693e-05
7.05534e-05
5.92944e-05
4.96683e-05
4.18153e-05
3.50293e-05
2.95684e-05
2.47863e-05
2.09965e-05
1.78799e-05
1.69749e-05
2.72781e-05
9.72841e-05
0.000331275
0.000783603
0.00165489
0.00257985
0.0035269
0.00363066
0.00258868
0.000779833
0.000135356
0.000146985
0.000168201
0.00017063
0.00018301
0.000188641
0.000204505
0.000186959
0.000167191
0.00014901
0.000131782
0.000114819
9.82704e-05
8.3373e-05
6.98629e-05
5.86891e-05
4.91522e-05
4.13644e-05
3.46518e-05
2.92378e-05
2.45144e-05
2.0791e-05
1.7938e-05
1.8525e-05
3.71029e-05
0.000137764
0.000417075
0.00092452
0.00187512
0.00273711
0.00363716
0.00364925
0.00257542
0.000771623
0.000139042
0.000151915
0.000172276
0.000174576
0.000185801
0.00019136
0.000205634
0.000184536
0.000165143
0.000147246
0.000130236
0.000113503
9.72239e-05
8.24865e-05
6.90946e-05
5.80146e-05
4.85766e-05
4.08599e-05
3.42287e-05
2.88673e-05
2.42197e-05
2.0611e-05
1.82938e-05
2.18191e-05
5.47391e-05
0.000197284
0.000525948
0.00109448
0.00207374
0.00290076
0.00374273
0.00365616
0.00255858
0.000761342
0.000143459
0.000157564
0.000176846
0.000178913
0.000189077
0.000194726
0.000202636
0.000181945
0.000162931
0.000145319
0.000128531
0.000112043
9.60799e-05
8.15142e-05
6.8254e-05
5.72773e-05
4.79484e-05
4.03098e-05
3.37676e-05
2.84668e-05
2.39178e-05
2.05298e-05
1.93036e-05
2.83248e-05
8.39476e-05
0.000276848
0.000655004
0.00128842
0.00222552
0.00306463
0.0038398
0.00365806
0.00253507
0.000746388
0.000148513
0.00016391
0.000181903
0.000183696
0.000192954
0.000198861
0.000199537
0.000179249
0.000160603
0.000143266
0.0001267
0.000110463
9.48282e-05
8.04587e-05
6.73388e-05
5.64718e-05
4.72594e-05
3.97044e-05
3.3259e-05
2.80319e-05
2.36368e-05
2.07406e-05
2.1913e-05
4.17463e-05
0.000133663
0.000386135
0.000817132
0.00151983
0.00238054
0.00322562
0.00392477
0.00364667
0.00250478
0.000727526
0.000154786
0.000171617
0.000188127
0.00018954
0.000198119
0.000204442
0.000196278
0.000176397
0.00015811
0.000141042
0.000124699
0.000108723
9.34122e-05
7.92822e-05
6.6316e-05
5.55694e-05
4.64848e-05
3.90225e-05
3.2688e-05
2.75717e-05
2.3497e-05
2.18625e-05
2.87138e-05
7.03964e-05
0.00021846
0.000537957
0.00102696
0.00179872
0.00255823
0.00339313
0.00400552
0.00362068
0.00245447
0.000696437
0.000161878
0.000179671
0.000194501
0.000195811
0.000204164
0.000211175
0.000192952
0.000173476
0.000155538
0.00013873
0.000122608
0.000106893
9.18944e-05
7.80217e-05
6.52203e-05
5.46038e-05
4.56555e-05
3.82964e-05
3.20961e-05
2.71854e-05
2.38485e-05
2.5216e-05
4.39678e-05
0.00012295
0.000340896
0.000723335
0.00127102
0.00210241
0.0026706
0.00349139
0.00401371
0.00357761
0.00242003
0.000676216
0.000169959
0.000189348
0.000202714
0.000203592
0.000211617
0.000210705
0.000190134
0.000170988
0.000153326
0.000136726
0.000120785
0.000105285
9.0537e-05
7.68759e-05
6.42174e-05
5.37151e-05
4.48867e-05
3.76261e-05
3.15821e-05
2.70411e-05
2.51883e-05
3.24755e-05
7.21588e-05
0.000204799
0.000498249
0.000939924
0.00154541
0.00236244
0.00284228
0.00360574
0.00404164
0.00350411
0.00232394
0.000622465
0.000175498
0.000194606
0.000206223
0.000207465
0.000216197
0.000208025
0.000187745
0.000168867
0.000151428
0.000134994
0.000119202
0.000103881
8.93351e-05
7.5846e-05
6.33081e-05
5.29038e-05
4.41797e-05
3.70192e-05
3.11856e-05
2.73183e-05
2.82131e-05
4.58033e-05
0.000117179
0.000314122
0.000676065
0.00116962
0.00182779
0.00216122
0.00273942
0.00349091
0.00375889
0.00325514
0.00216563
0.00057407
1.7003e-05
1.51588e-05
1.47472e-05
1.4583e-05
1.44694e-05
1.46105e-05
1.50556e-05
1.57971e-05
1.68671e-05
1.83236e-05
2.02362e-05
2.27068e-05
2.57576e-05
2.97027e-05
3.379e-05
3.84568e-05
4.37559e-05
3.85065e-05
3.12816e-05
2.55846e-05
2.10684e-05
1.75194e-05
1.46601e-05
1.25073e-05
1.06429e-05
9.41951e-06
8.0541e-06
7.11732e-06
6.13731e-06
5.64987e-06
5.55205e-06
6.96238e-06
8.21957e-06
4.95367e-07
1.62068e-05
1.46093e-05
1.43722e-05
1.42474e-05
1.4112e-05
1.42202e-05
1.46156e-05
1.52832e-05
1.62532e-05
1.75778e-05
1.9316e-05
2.15545e-05
2.44094e-05
2.83511e-05
3.21512e-05
3.61752e-05
4.1136e-05
3.83145e-05
3.11441e-05
2.54777e-05
2.09806e-05
1.74337e-05
1.45804e-05
1.24064e-05
1.05451e-05
9.35304e-06
8.00054e-06
7.13785e-06
6.11786e-06
5.63088e-06
5.38501e-06
6.73092e-06
8.09612e-06
4.808e-07
1.51266e-05
1.38118e-05
1.3618e-05
1.35152e-05
1.34079e-05
1.35252e-05
1.39083e-05
1.45434e-05
1.5458e-05
1.66994e-05
1.83211e-05
2.05886e-05
2.3237e-05
2.66506e-05
3.02081e-05
3.42877e-05
3.89029e-05
3.82011e-05
3.1067e-05
2.5418e-05
2.09295e-05
1.73779e-05
1.45247e-05
1.23268e-05
1.0466e-05
9.27769e-06
7.95264e-06
7.15546e-06
6.10979e-06
5.61563e-06
5.20227e-06
6.42031e-06
7.94192e-06
4.52125e-07
1.45719e-05
1.33274e-05
1.31267e-05
1.30382e-05
1.29505e-05
1.30653e-05
1.34273e-05
1.40259e-05
1.4885e-05
1.61672e-05
1.77021e-05
1.96614e-05
2.21347e-05
2.53189e-05
2.86223e-05