/*--------------------------------*- C++ -*----------------------------------*\
| =========                 |                                                 |
| \\      /  F ield         | OpenFOAM: The Open Source CFD Toolbox           |
|  \\    /   O peration     | Version:  2.3.0                                 |
|   \\  /    A nd           | Web:      www.OpenFOAM.org                      |
|    \\/     M anipulation  |                                                 |
\*---------------------------------------------------------------------------*/
FoamFile
{
    version     2.0;
    format      ascii;
    class       volVectorField;
    location    "300";
    object      U;
}
// * * * * * * * * * * * * * * * * * * * * * * * * * * * * * * * * * * * * * //

dimensions      [0 1 -1 0 0 0 0];

internalField   nonuniform List<vector> 
28552
(
(93.197 6.925e-19 0.65922)
(92.9826 -1.01862e-18 0.32574)
(92.7501 -3.62194e-19 -0.0144029)
(92.5099 1.20493e-18 -0.361006)
(92.2528 -2.08127e-18 -0.742781)
(91.9798 -4.73342e-20 -1.16591)
(91.6933 1.40861e-18 -1.63209)
(91.3933 -1.41776e-18 -2.14812)
(91.0804 1.02116e-18 -2.72267)
(90.7565 1.33853e-20 -3.36493)
(90.4246 1.1005e-18 -4.08543)
(90.0895 -5.70513e-19 -4.89741)
(89.7594 5.97052e-19 -5.81487)
(89.4437 -3.2531e-19 -6.86233)
(89.1684 -3.32366e-19 -8.00466)
(88.9614 4.03861e-19 -9.17669)
(88.83 -8.90351e-19 -10.3637)
(88.777 4.90518e-19 -11.5527)
(88.8022 1.08279e-18 -12.7282)
(88.9023 -5.77369e-19 -13.8815)
(89.0726 0 -14.9864)
(89.3025 -3.13928e-19 -16.0676)
(89.5892 3.77823e-19 -17.0281)
(89.9074 3.27552e-19 -18.0693)
(90.2806 -1.80505e-19 -18.7377)
(90.6115 3.74772e-19 -19.9089)
(91.0903 2.30511e-20 -20.0463)
(91.3141 2.0267e-19 -21.6591)
(92.0376 -1.40155e-20 -20.7684)
(91.6905 0 -23.6209)
(93.2422 0 -20.4135)
(91.3747 0 -26.6114)
(96.3007 -2.90562e-19 -18.7772)
(79.1958 2.89141e-19 -27.2506)
(93.636 -9.94426e-19 0.331269)
(93.4323 1.70379e-18 -0.0213462)
(93.2175 -7.03131e-19 -0.368414)
(93.0029 3.77685e-19 -0.716631)
(92.774 3.78835e-19 -1.10421)
(92.5325 0 -1.53284)
(92.2819 4.6306e-19 -2.00296)
(92.0218 -4.239e-19 -2.52151)
(91.7527 -4.95225e-19 -3.09625)
(91.4766 5.06848e-19 -3.73532)
(91.1967 -1.59193e-18 -4.44809)
(90.9172 1.6644e-18 -5.24625)
(90.6455 -1.15969e-18 -6.1419)
(90.3912 -5.58038e-19 -7.15732)
(90.1771 6.88547e-19 -8.25752)
(90.0253 3.4434e-19 -9.37864)
(89.9406 0 -10.5068)
(89.9245 4.30213e-19 -11.631)
(89.9764 -4.74472e-19 -12.737)
(90.0928 -2.36579e-19 -13.8198)
(90.2693 -2.50774e-19 -14.8512)
(90.4954 0 -15.868)
(90.7703 0 -16.7543)
(91.0679 0 -17.7525)
(91.4159 0 -18.3544)
(91.7197 -4.81667e-19 -19.4965)
(92.1526 3.40694e-19 -19.593)
(92.3466 1.59544e-19 -21.1982)
(93.0417 -2.68995e-19 -20.2989)
(92.6419 0 -23.2196)
(94.2137 0 -19.9949)
(92.2724 0 -26.2861)
(97.2983 1.74937e-19 -19.0085)
(80.8371 -4.51028e-19 -26.6691)
(94.0882 6.12051e-19 0.0311088)
(93.9055 -2.47843e-20 -0.340233)
(93.7142 3.51149e-19 -0.69039)
(93.5254 1.42184e-18 -1.03747)
(93.3243 -1.11141e-18 -1.42782)
(93.113 -4.13721e-19 -1.85825)
(92.8949 1.21595e-18 -2.32785)
(92.67 4.27544e-19 -2.84404)
(92.4391 -4.34608e-19 -3.41387)
(92.2043 0 -4.04457)
(91.969 -4.55845e-19 -4.74458)
(91.7381 -5.02876e-19 -5.52468)
(91.5191 5.11293e-19 -6.39549)
(91.3207 5.56295e-19 -7.37681)
(91.1624 0 -8.43365)
(91.0614 -3.43045e-19 -9.50412)
(91.0207 -3.50883e-19 -10.5751)
(91.0405 8.21314e-21 -11.6374)
(91.1192 6.10992e-19 -12.6771)
(91.2525 4.40881e-19 -13.6934)
(91.4375 6.9267e-19 -14.6547)
(91.6625 -2.49479e-19 -15.6116)
(91.9333 0 -16.426)
(92.2154 0 -17.3811)
(92.5549 2.56191e-19 -17.9181)
(92.8368 -3.43288e-19 -19.0326)
(93.258 0 -19.074)
(93.4284 -2.00366e-19 -20.6845)
(94.1371 1.60179e-19 -19.7271)
(93.7354 -1.38547e-20 -22.7005)
(95.3895 2.17006e-20 -19.4429)
(93.4853 1.30256e-19 -25.6079)
(98.681 1.1523e-20 -18.7888)
(82.7599 -8.28667e-20 -25.8987)
(94.5646 1.37691e-19 -0.222223)
(94.4076 -1.71271e-19 -0.618012)
(94.244 0 -0.970273)
(94.0819 4.79451e-19 -1.31676)
(93.9091 -6.75684e-19 -1.70908)
(93.7286 1.57728e-19 -2.1392)
(93.5434 -3.66891e-19 -2.60628)
(93.3539 5.75775e-19 -3.11817)
(93.1614 -2.06733e-19 -3.681)
(92.968 0 -4.30114)
(92.7771 6.6312e-19 -4.98622)
(92.5929 6.64363e-19 -5.74567)
(92.4223 -8.69446e-21 -6.58869)
(92.274 -2.3385e-19 -7.53312)
(92.1639 2.44063e-19 -8.54428)
(92.1053 0 -9.56281)
(92.1005 2.89992e-19 -10.5766)
(92.1493 0 -11.5781)
(92.2499 -5.44121e-19 -12.5538)
(92.3983 1.81808e-19 -13.5069)
(92.5913 -2.1656e-19 -14.4007)
(92.8179 -2.00743e-19 -15.3006)
(93.0852 3.19166e-19 -16.0455)
(93.3597 -2.09792e-19 -16.9541)
(93.6879 4.92427e-19 -17.4242)
(93.9683 -1.70667e-19 -18.4987)
(94.3759 0 -18.4643)
(94.5588 -6.06805e-20 -20.0523)
(95.2814 -1.88417e-19 -18.9573)
(94.8852 2.35908e-19 -21.9655)
(96.6352 5.65375e-20 -18.4902)
(94.7244 -7.86034e-20 -24.4432)
(99.8219 -1.15212e-20 -17.7154)
(83.8417 2.60091e-20 -24.7052)
(95.0539 -2.63084e-19 -0.422417)
(94.9185 -1.35735e-20 -0.838666)
(94.7816 -1.36546e-19 -1.18916)
(94.6427 -2.98119e-19 -1.53329)
(94.4948 -1.46804e-19 -1.92502)
(94.3426 -3.21832e-19 -2.35219)
(94.1879 -1.57961e-19 -2.8143)
(94.0307 -1.93693e-20 -3.31938)
(93.8728 1.72967e-19 -3.87264)
(93.7165 -5.43066e-19 -4.47976)
(93.5651 -2.03746e-19 -5.14764)
(93.4229 -2.10157e-19 -5.88472)
(93.2967 -4.05357e-19 -6.69902)
(93.195 1.90814e-19 -7.60648)
(93.1305 -6.74064e-19 -8.57279)
(93.1132 1.17738e-19 -9.54094)
(93.1442 2.42238e-19 -10.4996)
(93.2221 -9.66086e-21 -11.4429)
(93.3452 -1.30583e-20 -12.3571)
(93.5085 -3.23743e-19 -13.25)
(93.7109 7.48435e-20 -14.0786)
(93.9394 0 -14.924)
(94.2074 -9.64754e-20 -15.6001)
(94.4728 -1.65762e-19 -16.4633)
(94.7975 -3.05611e-20 -16.861)
(95.0572 1.80326e-19 -17.9048)
(95.4609 1.53223e-19 -17.7819)
(95.5919 -1.68779e-19 -19.3785)
(96.3204 1.31707e-19 -18.1566)
(95.8331 -1.45631e-19 -21.222)
(97.5386 1.98476e-20 -17.6969)
(95.5383 -6.77223e-21 -23.559)
(100.46 0 -16.987)
(84.5723 3.03794e-21 -23.6345)
(95.5458 1.8389e-19 -0.570382)
(95.4295 -7.36052e-20 -1.00901)
(95.3228 2.00237e-19 -1.35448)
(95.2103 -1.30786e-19 -1.69627)
(95.0888 7.75094e-19 -2.08619)
(94.9654 2.28351e-19 -2.50875)
(94.8413 -1.37577e-19 -2.9643)
(94.7167 -4.77579e-19 -3.46087)
(94.5937 6.39085e-19 -4.00274)
(94.4745 -4.05325e-19 -4.59501)
(94.3623 3.35633e-19 -5.24381)
(94.2613 0 -5.9566)
(94.1778 1.89313e-19 -6.74034)
(94.1197 -1.90363e-19 -7.60928)
(94.0967 2.97476e-19 -8.52965)
(94.1154 -3.18852e-19 -9.44718)
(94.1764 7.45688e-21 -10.3512)
(94.2783 4.72985e-19 -11.2379)
(94.4191 -3.11418e-19 -12.0923)
(94.5943 -5.81383e-20 -12.9275)
(94.8026 -7.45747e-20 -13.6936)
(95.0309 9.91881e-20 -14.4873)
(95.2926 -2.70556e-19 -15.1004)
(95.5483 1.70274e-19 -15.9216)
(95.8503 -1.21603e-19 -16.2605)
(96.099 2.36879e-19 -17.2741)
(96.4571 -1.27495e-19 -17.0916)
(96.5747 0 -18.6828)
(97.2638 0 -17.3791)
(96.7549 6.5403e-20 -20.4544)
(98.4238 -1.11326e-19 -16.8785)
(96.4132 4.74286e-20 -22.6207)
(101.257 0 -16.1765)
(85.4207 2.44531e-21 -22.6081)
(96.0412 -5.72711e-20 -0.67104)
(95.9447 3.71124e-19 -1.1308)
(95.8623 -5.2464e-19 -1.46662)
(95.7724 -2.816e-20 -1.80416)
(95.6746 -3.7214e-20 -2.19004)
(95.5774 -9.82337e-20 -2.60583)
(95.4812 -3.06865e-20 -3.053)
(95.3863 0 -3.53924)
(95.2947 -3.22668e-20 -4.06799)
(95.2088 -1.09702e-19 -4.64387)
(95.1317 -3.35619e-20 -5.27235)
(95.0674 -2.95458e-19 -5.95999)
(95.022 4.13268e-19 -6.71279)
(95.0033 -2.09267e-21 -7.54348)
(95.0185 -4.08358e-19 -8.4189)
(95.071 3.04178e-19 -9.28737)
(95.1608 -3.43174e-19 -10.1388)
(95.2856 1.95949e-19 -10.9712)
(95.4435 3.39515e-20 -11.7686)
(95.6291 -1.36235e-19 -12.5495)
(95.8435 2.13632e-19 -13.2559)
(96.0712 -1.50956e-19 -14.0013)
(96.3314 2.21162e-19 -14.5521)
(96.5775 -2.37528e-20 -15.3356)
(96.8765 7.97511e-20 -15.6062)
(97.1042 -7.51963e-20 -16.605)
(97.4698 3.02973e-21 -16.328)
(97.5315 -4.52426e-20 -17.9554)
(98.2585 5.02641e-20 -16.5209)
(97.6657 0 -19.6591)
(99.355 -2.37553e-21 -16.0135)
(97.2952 -4.31752e-20 -21.6852)
(102.02 4.45546e-20 -15.388)
(86.2629 -2.43108e-21 -21.6177)
(96.5238 -5.79367e-19 -0.734347)
(96.4502 2.10164e-20 -1.2011)
(96.3964 2.03987e-19 -1.52835)
(96.3324 3.14044e-20 -1.86025)
(96.2598 -2.91676e-20 -2.24049)
(96.1891 2.99825e-20 -2.64784)
(96.1212 3.4062e-20 -3.08496)
(96.0562 -2.34241e-19 -3.55902)
(95.9963 2.68261e-20 -4.07271)
(95.9439 3.51827e-20 -4.6302)
(95.9019 3.34068e-20 -5.23633)
(95.8741 2.50851e-19 -5.89681)
(95.8659 -8.83987e-20 -6.61678)
(95.8847 1.22614e-19 -7.40759)
(95.935 3.61839e-21 -8.23694)
(96.0175 4.2406e-20 -9.05605)
(96.1318 -1.64106e-20 -9.85536)
(96.276 -1.43354e-19 -10.6345)
(96.4479 1.77445e-19 -11.3759)
(96.6427 1.95357e-21 -12.1039)
(96.8618 1.33772e-19 -12.7523)
(97.0898 -1.59213e-19 -13.4503)
(97.3445 -1.02877e-20 -13.943)
(97.5854 -4.73966e-21 -14.6888)
(97.8653 0 -14.9053)
(98.0907 0 -15.8789)
(98.4157 9.46526e-21 -15.5553)
(98.4826 -1.35831e-20 -17.1695)
(99.1704 -5.52571e-22 -15.7123)
(98.5955 0 -18.8135)
(100.216 0 -15.2493)
(98.2078 1.07276e-19 -20.7832)
(102.847 -2.44426e-19 -14.7714)
(87.3432 1.72387e-19 -20.6848)
(97.0066 -1.72174e-19 -0.747506)
(96.944 -4.70168e-21 -1.22145)
(96.9135 1.76906e-19 -1.5414)
(96.8741 -3.08119e-21 -1.86716)
(96.8246 1.86813e-19 -2.24087)
(96.778 -2.10077e-19 -2.63869)
(96.7356 -3.29645e-21 -3.06467)
(96.6974 0 -3.52545)
(96.6658 2.58594e-20 -4.02309)
(96.643 -3.4612e-21 -4.56144)
(96.632 1.99989e-19 -5.14472)
(96.6363 -1.83012e-19 -5.7779)
(96.6613 0 -6.46531)
(96.714 0 -7.21704)
(96.7968 -3.60801e-21 -8.00157)
(96.9079 -1.04088e-19 -8.77293)
(97.0461 1.06616e-19 -9.52186)
(97.2089 1.98925e-21 -10.2501)
(97.3945 -9.67647e-20 -10.938)
(97.597 9.51513e-20 -11.6163)
(97.8201 1.86764e-21 -12.209)
(98.0466 -8.6021e-22 -12.8626)
(98.2989 -5.17939e-20 -13.2958)
(98.5324 8.83911e-20 -14.006)
(98.8106 -3.94208e-20 -14.1524)
(99.0222 3.02977e-20 -15.1103)
(99.3611 -2.48991e-20 -14.6845)
(99.3848 -1.64542e-22 -16.3256)
(100.126 -2.64999e-21 -14.73)
(99.4966 -1.07413e-19 -17.8662)
(101.183 1.21233e-19 -14.1911)
(99.1624 0 -19.6001)
(103.749 0 -13.7431)
(88.3186 -4.88571e-22 -19.5648)
(97.4692 3.19602e-19 -0.717388)
(97.4269 -1.10888e-19 -1.20007)
(97.4204 3.39741e-20 -1.5058)
(97.4048 0 -1.82564)
(97.3791 1.89377e-19 -2.19107)
(97.3568 -9.91312e-20 -2.57753)
(97.34 3.53098e-20 -2.99068)
(97.3292 -1.23217e-19 -3.43635)
(97.3263 1.72898e-19 -3.91603)
(97.3336 3.50253e-20 -4.43328)
(97.3538 3.44509e-20 -4.99175)
(97.3904 1.13078e-20 -5.59571)
(97.4479 0 -6.24889)
(97.5331 0 -6.96025)
(97.6458 0 -7.69942)
(97.7819 0 -8.42351)
(97.9403 -6.55432e-20 -9.12335)
(98.1186 7.22107e-20 -9.80257)
(98.3151 -5.31103e-20 -10.4393)
(98.5242 7.52724e-20 -11.0702)
(98.7497 0 -11.6097)
(98.9747 0 -12.2208)
(99.2198 0 -12.5991)
(99.4461 -3.37343e-20 -13.2739)
(99.7039 1.06631e-19 -13.3635)
(99.9066 -6.35045e-20 -14.2938)
(100.209 -2.46571e-21 -13.8126)
(100.235 0 -15.415)
(100.915 2.46029e-19 -13.7971)
(100.326 -2.71097e-19 -16.8162)
(101.88 -4.51335e-21 -13.2788)
(99.9795 0 -18.3424)
(104.341 -8.26763e-21 -12.7303)
(88.8636 -7.3263e-19 -18.4214)
(97.9175 8.91079e-20 -0.651113)
(97.8916 -3.40726e-20 -1.14914)
(97.9068 8.91672e-20 -1.43334)
(97.9113 -2.48833e-19 -1.7477)
(97.907 9.0043e-20 -2.10346)
(97.9069 8.96105e-20 -2.47719)
(97.913 -1.06926e-19 -2.87674)
(97.9264 -3.56894e-20 -3.30652)
(97.9491 -1.57322e-19 -3.76762)
(97.983 8.7413e-20 -4.26336)
(98.0309 8.00696e-20 -4.79679)
(98.096 -1.4913e-19 -5.3716)
(98.1829 0 -5.99074)
(98.2979 0 -6.66222)
(98.4391 7.64883e-20 -7.35662)
(98.6002 -3.22275e-20 -8.03413)
(98.7795 0 -8.68572)
(98.974 0 -9.31778)
(99.182 1.19839e-20 -9.90548)
(99.3968 -2.05048e-20 -10.4936)
(99.6237 -1.99776e-20 -10.9846)
(99.8443 2.20163e-20 -11.561)
(100.081 0 -11.8899)
(100.294 9.5406e-20 -12.5422)
(100.54 1.97383e-20 -12.5721)
(100.717 -1.50896e-19 -13.5019)
(101.011 0 -12.9288)
(100.972 0 -14.581)
(101.67 2.08336e-20 -12.8177)
(100.972 -3.82282e-19 -15.916)
(102.55 8.6003e-19 -12.2106)
(100.526 -5.04191e-19 -17.4212)
(104.72 6.16376e-19 -11.367)
(89.0503 -7.80867e-19 -17.4339)
(98.3462 -9.40076e-20 -0.55048)
(98.3384 -4.35773e-20 -1.05669)
(98.3732 9.64275e-20 -1.31973)
(98.3992 4.10804e-20 -1.62684)
(98.4174 -5.34048e-20 -1.97038)
(98.4397 2.26477e-19 -2.32942)
(98.469 -1.47081e-19 -2.71322)
(98.507 3.68909e-20 -3.12474)
(98.5554 0 -3.56483)
(98.6161 3.25615e-20 -4.03652)
(98.6917 0 -4.54238)
(98.7851 0 -5.08547)
(98.9002 0 -5.66836)
(99.0432 2.19492e-20 -6.29809)
(99.2098 -5.7574e-20 -6.94672)
(99.3922 -1.42719e-20 -7.5777)
(99.5888 0 -8.18188)
(99.7969 -1.20393e-20 -8.76797)
(100.015 3.17606e-20 -9.30836)
(100.237 -3.05655e-20 -9.85503)
(100.468 4.90184e-20 -10.3005)
(100.691 0 -10.8458)
(100.925 0 -11.1343)
(101.135 0 -11.774)
(101.364 1.88127e-19 -11.7754)
(101.528 -2.07242e-19 -12.7178)
(101.801 0 -12.1458)
(101.752 -3.47246e-19 -13.8125)
(102.411 7.12635e-19 -12.1432)
(101.732 -3.89718e-19 -15.2027)
(103.211 0 -11.7599)
(101.253 0 -16.8535)
(105.372 -6.38967e-19 -11.4127)
(90.0646 -1.52858e-20 -16.6718)
(98.7504 7.48405e-20 -0.420751)
(98.7582 4.26702e-20 -0.934306)
(98.8109 0 -1.1748)
(98.8569 -6.98808e-20 -1.47428)
(98.896 -4.08225e-20 -1.80445)
(98.9388 -3.98712e-20 -2.14803)
(98.9889 5.96997e-20 -2.51542)
(99.0489 -9.71532e-20 -2.90802)
(99.1203 0 -3.3266)
(99.2048 -3.27207e-20 -3.77392)
(99.305 0 -4.25192)
(99.4236 0 -4.76322)
(99.5646 0 -5.30958)
(99.7337 0 -5.89726)
(99.9253 2.03579e-20 -6.49923)
(100.13 -2.48315e-20 -7.08241)
(100.345 1.88571e-20 -7.63741)
(100.569 1.82846e-20 -8.17621)
(100.799 -6.81856e-20 -8.6677)
(101.03 3.36962e-20 -9.17261)
(101.268 -1.10835e-19 -9.57177)
(101.495 8.37045e-20 -10.0842)
(101.731 -4.70969e-20 -10.3298)
(101.949 5.77556e-20 -10.9447)
(102.182 0 -10.9019)
(102.366 0 -11.822)
(102.653 -3.71272e-19 -11.2025)
(102.63 -4.79231e-21 -12.832)
(103.315 9.6343e-19 -11.1329)
(102.714 -6.08231e-19 -14.0696)
(104.192 0 -10.6454)
(102.405 8.14841e-19 -15.4072)
(106.601 -1.8405e-18 -10.3347)
(91.0708 2.44276e-18 -15.3503)
(99.1309 -5.3544e-20 -0.265867)
(99.1568 -3.95257e-20 -0.784289)
(99.2263 3.56488e-20 -1.00033)
(99.2915 2.86098e-20 -1.29158)
(99.3518 0 -1.60644)
(99.4151 -2.41696e-20 -1.93302)
(99.4862 0 -2.28232)
(99.5681 1.31791e-20 -2.65418)
(99.6623 6.36176e-21 -3.04945)
(99.7704 -4.89135e-21 -3.47053)
(99.8946 4.91724e-21 -3.91897)
(100.038 0 -4.39686)
(100.203 0 -4.90578)
(100.395 0 -5.45104)
(100.608 -1.33755e-20 -6.00728)
(100.829 0 -6.54448)
(101.058 0 -7.0523)
(101.292 2.68119e-20 -7.54471)
(101.532 0 -7.98586)
(101.77 -4.79484e-20 -8.44295)
(102.014 0 -8.78385)
(102.25 -1.49125e-19 -9.24509)
(102.494 2.54074e-19 -9.41764)
(102.721 -5.80629e-20 -9.98193)
(102.963 0 -9.84474)
(103.147 0 -10.722)
(103.442 5.62306e-20 -9.98533)
(103.404 0 -11.5831)
(104.095 -5.67673e-19 -9.74079)
(103.457 6.27352e-19 -12.6708)
(104.937 7.41668e-19 -9.12307)
(103.085 -9.22501e-19 -13.7788)
(106.84 -9.76434e-19 -8.51729)
(90.7534 -3.32937e-20 -14.0167)
(99.4866 0 -0.0897639)
(99.5271 5.79508e-20 -0.608611)
(99.6122 -3.56333e-20 -0.800364)
(99.6956 -1.807e-20 -1.08254)
(99.7753 2.24096e-20 -1.3809)
(99.8575 2.40904e-20 -1.68973)
(99.9474 -7.65828e-21 -2.0201)
(100.049 -2.78804e-20 -2.37037)
(100.164 -6.3229e-21 -2.74156)
(100.293 -5.43749e-20 -3.13574)
(100.438 2.25047e-20 -3.55386)
(100.603 0 -3.99771)
(100.79 2.94942e-20 -4.46795)
(101.005 1.59294e-20 -4.9694)
(101.238 4.096e-20 -5.47748)
(101.478 7.00729e-20 -5.96602)
(101.722 8.29181e-20 -6.42411)
(101.968 -1.94746e-19 -6.86975)
(102.215 1.13886e-19 -7.26308)
(102.455 -7.34006e-20 -7.68209)
(102.696 1.70248e-19 -7.98217)
(102.921 1.63128e-19 -8.42252)
(103.145 -3.11207e-19 -8.56652)
(103.35 -3.04994e-19 -9.1293)
(103.557 4.27811e-19 -8.9808)
(103.713 0 -9.87167)
(103.974 4.1528e-19 -9.1485)
(103.902 -5.91539e-19 -10.7632)
(104.539 0 -8.99651)
(103.892 8.92045e-20 -11.8933)
(105.275 4.69948e-20 -8.5664)
(103.512 5.5853e-20 -13.1216)
(107.1 9.5726e-19 -8.13069)
(90.4333 -1.25856e-18 -13.0326)
(99.8159 0 0.10332)
(99.876 -1.84615e-20 -0.406162)
(99.9728 0 -0.575671)
(100.074 -4.83207e-21 -0.846504)
(100.174 5.65831e-22 -1.12625)
(100.275 0 -1.4155)
(100.383 7.66371e-21 -1.72463)
(100.504 -1.58707e-21 -2.05092)
(100.639 1.64201e-20 -2.39557)
(100.789 1.1834e-19 -2.76018)
(100.955 -9.80536e-20 -3.1455)
(101.141 0 -3.5528)
(101.348 -5.32318e-20 -3.98284)
(101.582 -1.28308e-19 -4.4397)
(101.832 0 -4.90122)
(102.084 1.64877e-20 -5.34503)
(102.338 -2.01485e-19 -5.75967)
(102.589 -1.26415e-20 -6.16617)
(102.839 1.42684e-19 -6.52071)
(103.082 1.56839e-20 -6.9077)
(103.323 -1.14709e-19 -7.17192)
(103.555 5.79724e-20 -7.58558)
(103.783 -2.36779e-19 -7.6945)
(103.998 3.35979e-19 -8.23839)
(104.208 -9.26231e-20 -8.05733)
(104.373 -4.72518e-19 -8.93315)
(104.643 1.06172e-18 -8.18967)
(104.586 -5.29406e-19 -9.77248)
(105.227 0 -8.00702)
(104.623 6.347e-21 -10.813)
(105.994 -9.12362e-19 -7.52973)
(104.282 1.03188e-18 -11.9092)
(107.79 -7.34689e-20 -7.17559)
(90.3383 0 -11.7113)
(100.119 -7.06355e-21 0.312156)
(100.194 5.14299e-21 -0.191241)
(100.304 1.01323e-20 -0.335124)
(100.421 -4.29256e-20 -0.595393)
(100.538 0 -0.855646)
(100.655 0 -1.12517)
(100.78 -5.60085e-20 -1.41304)
(100.918 -2.93255e-20 -1.7154)
(101.07 2.94192e-20 -2.03379)
(101.237 -6.06361e-20 -2.3694)
(101.421 1.18972e-19 -2.7224)
(101.624 -1.60791e-19 -3.09391)
(101.849 9.99353e-20 -3.48352)
(102.1 1.45755e-19 -3.89496)
(102.366 8.73956e-20 -4.30607)
(102.633 1.38679e-20 -4.69811)
(102.9 1.29693e-19 -5.05771)
(103.163 -1.42674e-19 -5.40934)
(103.425 -9.09044e-20 -5.70284)
(103.679 1.06386e-19 -6.03398)
(103.93 -1.52572e-20 -6.23182)
(104.171 0 -6.59223)
(104.406 -3.50649e-19 -6.62832)
(104.629 3.86571e-19 -7.12376)
(104.85 0 -6.85473)
(105.017 6.06611e-19 -7.69219)
(105.303 -5.92158e-19 -6.84146)
(105.244 -7.06319e-19 -8.3958)
(105.894 7.72351e-19 -6.52488)
(105.294 9.20441e-19 -9.28052)
(106.645 2.61601e-20 -5.98314)
(104.985 -1.1335e-18 -10.129)
(107.821 -1.24352e-18 -5.48515)
(89.3948 1.69316e-18 -10.2151)
(100.399 0 0.533311)
(100.49 0 0.0442977)
(100.61 1.96349e-20 -0.0756002)
(100.743 -6.14149e-20 -0.322607)
(100.877 -9.05154e-21 -0.560909)
(101.011 -2.70804e-20 -0.808599)
(101.152 -2.13881e-20 -1.07238)
(101.307 -8.73918e-20 -1.34795)
(101.475 -4.67556e-20 -1.63702)
(101.66 -1.16942e-19 -1.94026)
(101.861 1.12958e-19 -2.25774)
(102.081 -1.86544e-20 -2.59001)
(102.321 8.18998e-21 -2.93693)
(102.586 -2.19789e-19 -3.30126)
(102.863 0 -3.66367)
(103.137 1.69044e-20 -4.00928)
(103.406 0 -4.32391)
(103.669 0 -4.63644)
(103.926 -9.32759e-20 -4.89184)
(104.172 -1.22002e-19 -5.19279)
(104.411 2.70437e-19 -5.35926)
(104.639 -3.23031e-19 -5.70206)
(104.858 3.55274e-19 -5.71325)
(105.07 4.26665e-19 -6.1981)
(105.271 -4.69332e-19 -5.92065)
(105.424 -6.65252e-20 -6.75705)
(105.691 -6.29417e-19 -5.92054)
(105.617 -1.81269e-20 -7.47549)
(106.238 7.83589e-19 -5.65404)
(105.637 -5.62876e-20 -8.38863)
(106.953 -2.02889e-18 -5.20787)
(105.314 4.60527e-18 -9.25287)
(107.635 -4.81744e-18 -4.88854)
(88.0988 6.53154e-18 -8.95952)
(100.654 -2.16868e-20 0.762378)
(100.759 7.41225e-20 0.292401)
(100.887 3.26235e-20 0.195608)
(101.034 1.48788e-19 -0.0374224)
(101.183 -1.78302e-20 -0.253367)
(101.331 4.14556e-20 -0.479423)
(101.486 1.33176e-19 -0.719417)
(101.654 1.40161e-19 -0.968781)
(101.837 -5.2352e-20 -1.22953)
(102.035 2.45052e-19 -1.50194)
(102.249 -2.20162e-19 -1.78571)
(102.481 2.126e-19 -2.08159)
(102.733 1.8051e-19 -2.38834)
(103.008 0 -2.70928)
(103.293 1.17904e-19 -3.02487)
(103.573 -3.98378e-19 -3.32457)
(103.846 0 -3.5916)
(104.111 0 -3.85785)
(104.368 -2.29417e-19 -4.06222)
(104.612 3.76609e-19 -4.31837)
(104.849 -1.44115e-19 -4.4282)
(105.073 0 -4.72522)
(105.284 -1.02578e-19 -4.67306)
(105.485 -3.5049e-19 -5.12392)
(105.678 -1.82615e-20 -4.75782)
(105.815 1.27369e-18 -5.57276)
(106.076 -1.4356e-18 -4.6186)
(105.989 7.53365e-19 -6.13907)
(106.594 -1.06093e-19 -4.22422)
(106.001 0 -6.82182)
(107.231 1.06832e-18 -3.68573)
(105.677 -1.18922e-18 -7.40203)
(107.097 0 -3.12342)
(86.3306 0 -7.47312)
(100.885 2.89983e-20 0.999715)
(101.001 -8.17041e-20 0.548738)
(101.136 -1.37372e-19 0.47598)
(101.295 -2.81512e-20 0.257012)
(101.457 -1.12338e-20 0.0646615)
(101.617 -1.48945e-19 -0.13935)
(101.784 -2.11323e-19 -0.354569)
(101.964 0 -0.576993)
(102.158 6.82211e-20 -0.80862)
(102.367 -1.26178e-19 -1.04927)
(102.592 7.18402e-20 -1.29871)
(102.835 9.07843e-20 -1.5571)
(103.096 -2.70052e-19 -1.82373)
(103.379 0 -2.10086)
(103.669 0 -2.37198)
(103.952 -1.23302e-20 -2.62998)
(104.225 -1.78802e-19 -2.85722)
(104.486 0 -3.0914)
(104.738 0 -3.26445)
(104.975 1.39741e-19 -3.50074)
(105.2 -3.18817e-19 -3.59129)
(105.414 3.50291e-19 -3.88722)
(105.612 -4.19629e-19 -3.82658)
(105.805 8.11886e-19 -4.28766)
(105.983 -5.15869e-19 -3.93911)
(106.11 -7.29998e-20 -4.78069)
(106.357 7.52862e-19 -3.88229)
(106.264 -8.40512e-19 -5.43375)
(106.822 -6.28526e-19 -3.64024)
(106.263 9.38977e-19 -6.23795)
(107.451 0 -3.36113)
(105.948 1.10629e-18 -6.94155)
(106.829 -1.25947e-18 -3.13729)
(85.0017 0 -6.48005)
(101.091 -7.44588e-20 1.2416)
(101.218 0 0.812667)
(101.357 -1.31457e-20 0.761485)
(101.526 0 0.556615)
(101.698 9.41362e-20 0.386735)
(101.868 1.04261e-19 0.203553)
(102.044 1.15157e-19 0.011453)
(102.232 -7.08033e-20 -0.186014)
(102.434 7.09384e-20 -0.391054)
(102.651 0 -0.603189)
(102.883 0 -0.821987)
(103.131 0 -1.04808)
(103.397 0 -1.27979)
(103.683 0 -1.52082)
(103.976 -7.04496e-20 -1.75406)
(104.259 1.49111e-19 -1.97749)
(104.531 2.73137e-19 -2.16997)
(104.792 1.12962e-19 -2.37215)
(105.042 -2.54823e-19 -2.5111)
(105.28 -1.43285e-19 -2.71789)
(105.504 0 -2.76891)
(105.721 -2.9763e-19 -3.03261)
(105.918 4.40477e-19 -2.92522)
(106.115 8.16451e-21 -3.35564)
(106.298 -2.81902e-19 -2.94094)
(106.435 0 -3.72965)
(106.687 0 -2.76955)
(106.621 2.01213e-19 -4.18943)
(107.263 -1.0883e-19 -2.41012)
(106.673 0 -4.71417)
(107.866 0 -1.95142)
(106.383 7.60885e-20 -5.10928)
(106.249 0 -1.6038)
(83.4841 -9.32897e-19 -5.08661)
(101.275 1.60427e-19 1.48798)
(101.41 -9.14204e-20 1.07951)
(101.552 1.15192e-19 1.05015)
(101.728 -2.51834e-20 0.857645)
(101.908 0 0.710409)
(102.085 3.29535e-20 0.546605)
(102.268 2.94873e-21 0.376993)
(102.462 -2.31432e-19 0.203326)
(102.67 -1.30464e-19 0.0237329)
(102.892 -1.83937e-19 -0.16095)
(103.129 0 -0.350439)
(103.381 -2.15505e-19 -0.544722)
(103.65 0 -0.742529)
(103.939 -2.49294e-19 -0.9461)
(104.232 0 -1.14051)
(104.514 0 -1.32566)
(104.784 1.01642e-19 -1.47863)
(105.042 -2.2939e-19 -1.64619)
(105.287 2.58723e-19 -1.74454)
(105.519 1.55591e-19 -1.92215)
(105.735 -5.25159e-19 -1.93542)
(105.942 3.93971e-19 -2.1808)
(106.126 4.54799e-19 -2.03483)
(106.307 -2.52913e-19 -2.46192)
(106.47 2.9321e-19 -2.01405)
(106.583 8.9365e-20 -2.8169)
(106.808 -4.54631e-19 -1.84183)
(106.721 -1.03406e-19 -3.28806)
(107.251 0 -1.52161)
(106.728 5.21153e-19 -3.8187)
(107.772 -5.61852e-19 -1.21439)
(106.304 -5.54784e-19 -4.21433)
(105.314 6.79817e-19 -0.964224)
(81.4322 8.41081e-19 -4.08059)
(101.437 -6.24466e-20 1.7368)
(101.58 6.82828e-20 1.35063)
(101.722 5.61813e-20 1.34104)
(101.904 -6.08112e-20 1.16196)
(102.091 0 1.03616)
(102.274 -7.17314e-20 0.891379)
(102.461 -3.91055e-20 0.743253)
(102.659 1.53302e-19 0.592269)
(102.871 1.66376e-19 0.436665)
(103.096 1.31947e-19 0.277479)
(103.334 0 0.115133)
(103.588 1.01744e-19 -0.050888)
(103.856 0 -0.218293)
(104.142 -1.14118e-20 -0.391317)
(104.432 0 -0.553906)
(104.709 0 -0.712335)
(104.972 1.04864e-19 -0.839508)
(105.223 4.45279e-21 -0.987209)
(105.459 0 -1.06799)
(105.683 0 -1.23538)
(105.892 3.5549e-19 -1.2346)
(106.093 -1.9614e-19 -1.48115)
(106.271 -1.12994e-19 -1.3279)
(106.449 0 -1.76988)
(106.611 0 -1.31912)
(106.724 1.65471e-21 -2.15088)
(106.949 9.10011e-20 -1.17384)
(106.866 -4.15536e-19 -2.65754)
(107.397 4.54964e-19 -0.89903)
(106.884 6.63434e-20 -3.21341)
(108.003 0 -0.659357)
(106.497 -7.87084e-20 -3.59514)
(104.772 0 -0.571811)
(80.0302 6.10642e-20 -3.28971)
(101.579 0 1.98598)
(101.725 -1.39479e-20 1.62162)
(101.868 -8.75137e-20 1.63119)
(102.054 4.55909e-20 1.4633)
(102.245 0 1.35898)
(102.431 7.1843e-20 1.2312)
(102.622 0 1.10361)
(102.822 2.2559e-20 0.973643)
(103.036 -1.18495e-19 0.840377)
(103.262 9.82913e-20 0.704901)
(103.501 -1.10843e-19 0.56739)
(103.753 1.14179e-19 0.427738)
(104.02 -1.27629e-19 0.287588)
(104.303 2.61869e-19 0.143757)
(104.589 -1.58987e-19 0.0101225)
(104.861 0 -0.120595)
(105.12 2.72859e-20 -0.219527)
(105.365 -1.82743e-19 -0.342729)
(105.596 -7.17878e-20 -0.390502)
(105.815 -3.97612e-20 -0.535111)
(106.018 0 -0.494517)
(106.215 -1.56679e-19 -0.717763)
(106.39 -5.9957e-20 -0.508845)
(106.564 0 -0.919035)
(106.724 1.34957e-21 -0.401404)
(106.836 -1.65788e-19 -1.17374)
(107.067 4.74285e-20 -0.14569)
(106.976 -5.21742e-20 -1.50298)
(107.474 -5.90753e-20 0.236647)
(106.991 8.29968e-22 -1.82995)
(107.979 7.05053e-20 0.576434)
(106.444 -7.88765e-20 -1.91308)
(103.754 0 0.722791)
(78.1682 1.32456e-19 -2.16519)
(101.698 -1.38143e-20 2.23231)
(101.85 1.38324e-20 1.89762)
(101.99 7.66601e-20 1.91944)
(102.18 1.2726e-21 1.76609)
(102.373 5.69701e-20 1.68051)
(102.562 0 1.56941)
(102.754 8.61972e-20 1.46095)
(102.956 0 1.35061)
(103.169 9.54038e-20 1.23804)
(103.395 7.93179e-20 1.12434)
(103.633 2.80246e-19 1.00984)
(103.883 -2.90726e-20 0.893967)
(104.147 2.73482e-19 0.779681)
(104.426 -3.41152e-20 0.661824)
(104.707 1.76732e-19 0.556764)
(104.973 1.8694e-19 0.450584)
(105.225 0 0.378333)
(105.463 0 0.275576)
(105.685 1.40065e-19 0.250264)
(105.895 -4.09981e-20 0.119904)
(106.085 4.50427e-20 0.175951)
(106.269 0 -0.0443908)
(106.428 5.7464e-20 0.168041)
(106.585 9.85156e-20 -0.251347)
(106.725 3.75018e-20 0.250306)
(106.817 -8.33544e-20 -0.545003)
(107.011 0 0.445284)
(106.921 -1.0445e-19 -0.941665)
(107.381 -5.78428e-20 0.717029)
(106.893 1.29223e-19 -1.35615)
(107.847 -2.13463e-19 0.878585)
(106.252 8.02214e-20 -1.57639)
(102.743 -4.42038e-20 0.897496)
(76.3193 -3.05401e-22 -1.60022)
(101.798 -6.53276e-20 2.47976)
(101.953 -3.97732e-21 2.16806)
(102.091 -6.38116e-20 2.20532)
(102.282 4.62448e-21 2.06383)
(102.477 -1.57853e-19 1.99751)
(102.668 -2.67135e-21 1.90187)
(102.86 -8.12288e-20 1.81217)
(103.061 -9.91481e-20 1.72057)
(103.273 0 1.62799)
(103.497 -2.16993e-19 1.5353)
(103.733 -1.14483e-19 1.44275)
(103.98 -1.25178e-19 1.35004)
(104.239 -2.64078e-19 1.2595)
(104.513 1.40625e-19 1.16666)
(104.787 1.58629e-19 1.08529)
(105.047 -1.81784e-19 1.00021)
(105.291 1.39458e-20 0.946998)
(105.523 -3.12903e-20 0.857213)
(105.738 1.6102e-19 0.846792)
(105.944 0 0.719028)
(106.131 -2.34716e-20 0.790117)
(106.313 5.2328e-20 0.563348)
(106.473 7.35469e-22 0.792233)
(106.632 -3.28947e-20 0.353354)
(106.776 7.54347e-20 0.87894)
(106.875 -1.68718e-19 0.0561811)
(107.101 9.29921e-20 1.0729)
(107.002 2.10857e-19 -0.328831)
(107.502 -1.74005e-19 1.329)
(107.012 -6.5915e-20 -0.683218)
(107.988 7.18666e-20 1.47288)
(106.328 -1.587e-19 -0.841595)
(102.039 2.19949e-19 1.37265)
(75.1185 0 -0.944573)
(101.881 -2.41883e-21 2.72505)
(102.037 0 2.43746)
(102.173 7.01387e-20 2.48785)
(102.364 -2.24267e-21 2.3577)
(102.56 7.32019e-20 2.30938)
(102.75 -3.64977e-22 2.22783)
(102.942 9.81694e-20 2.15543)
(103.141 1.09225e-19 2.08088)
(103.351 -1.26641e-20 2.00632)
(103.572 1.10383e-19 1.93231)
(103.804 0 1.85924)
(104.047 1.25677e-19 1.78625)
(104.3 1.33917e-19 1.71692)
(104.568 -1.77923e-19 1.64448)
(104.836 -2.48047e-19 1.58615)
(105.089 2.40356e-21 1.51979)
(105.328 2.51562e-21 1.48963)
(105.554 -1.89494e-19 1.41839)
(105.765 -1.44841e-19 1.43385)
(105.967 -8.42637e-20 1.32697)
(106.15 1.86043e-19 1.42734)
(106.332 -2.13339e-19 1.22552)
(106.49 1.17869e-19 1.4883)
(106.648 -2.34205e-21 1.08805)
(106.794 1.48932e-19 1.64556)
(106.894 1.67743e-19 0.88088)
(107.089 -9.73703e-20 1.91338)
(107.02 2.09584e-19 0.616327)
(107.48 1.15432e-19 2.22697)
(107.035 6.49555e-20 0.4004)
(107.916 -5.8014e-19 2.41764)
(106.114 6.36991e-19 0.433043)
(100.943 7.32916e-19 2.21991)
(73.5994 -1.09078e-18 -0.0938273)
(101.946 6.9275e-20 2.96651)
(102.103 -8.38612e-20 2.70314)
(102.236 8.6318e-21 2.7653)
(102.427 0 2.64658)
(102.622 0 2.61547)
(102.811 -2.27031e-20 2.54712)
(103.001 -1.64601e-19 2.49151)
(103.198 -2.5841e-20 2.43296)
(103.405 2.58396e-20 2.37573)
(103.622 0 2.31966)
(103.849 0 2.26542)
(104.087 0 2.21237)
(104.334 0 2.16395)
(104.595 0 2.11431)
(104.854 1.65714e-19 2.07913)
(105.099 0 2.03546)
(105.328 1.10183e-19 2.02834)
(105.545 4.03678e-22 1.97526)
(105.745 0 2.01483)
(105.937 -3.4431e-21 1.91684)
(106.109 9.00432e-20 2.04368)
(106.28 1.05472e-19 1.83433)
(106.425 0 2.12998)
(106.576 -1.3413e-19 1.69411)
(106.709 7.38718e-20 2.29003)
(106.802 -1.5433e-21 1.47435)
(106.995 -1.86623e-19 2.52263)
(106.913 0 1.18889)
(107.369 -1.15534e-19 2.76824)
(106.923 -5.81221e-19 0.956369)
(107.76 4.86433e-19 2.83196)
(105.859 6.22176e-19 0.932647)
(99.8605 -6.59166e-19 2.56947)
(72.1345 -6.6554e-20 0.431617)
(101.994 0 3.20543)
(102.152 6.74238e-20 2.96439)
(102.281 0 3.0382)
(102.471 0 2.92968)
(102.664 2.17343e-20 2.91505)
(102.852 1.43945e-21 2.85889)
(103.039 2.23826e-20 2.8189)
(103.233 4.94169e-20 2.77517)
(103.436 0 2.7338)
(103.649 0 2.69396)
(103.871 6.30005e-20 2.65664)
(104.102 -6.29938e-20 2.6205)
(104.342 -7.07289e-20 2.59019)
(104.594 7.00138e-20 2.55713)
(104.843 0 2.54051)
(105.078 1.92295e-19 2.50925)
(105.297 -7.20226e-22 2.51805)
(105.503 1.26443e-19 2.47322)
(105.693 0 2.52596)
(105.874 1.4701e-21 2.43446)
(106.035 -1.79937e-19 2.57497)
(106.196 0 2.37355)
(106.331 0 2.68328)
(106.468 0 2.26945)
(106.59 -7.2522e-20 2.87348)
(106.671 2.43443e-19 2.1053)
(106.849 -2.65102e-19 3.14673)
(106.759 4.9225e-20 1.91405)
(107.19 1.09923e-19 3.42857)
(106.764 6.23932e-20 1.82003)
(107.507 0 3.5737)
(105.395 0 1.90619)
(98.504 -7.49421e-19 3.27802)
(70.4696 1.14172e-18 1.04469)
(102.027 1.11673e-21 3.43921)
(102.185 -8.67692e-20 3.2214)
(102.31 -3.86161e-20 3.30495)
(102.497 -4.13235e-20 3.20637)
(102.689 4.39249e-20 3.20766)
(102.874 -4.39279e-20 3.16233)
(103.058 -9.65987e-20 3.13748)
(103.248 0 3.1072)
(103.447 -5.27757e-20 3.08071)
(103.654 -2.30808e-19 3.05582)
(103.87 -3.52099e-21 3.03394)
(104.095 -3.66637e-21 3.01363)
(104.327 -6.98964e-20 2.99948)
(104.571 0 2.98312)
(104.81 0 2.98299)
(105.035 -1.91575e-19 2.96705)