/*--------------------------------*- C++ -*----------------------------------*\
| =========                 |                                                 |
| \\      /  F ield         | OpenFOAM: The Open Source CFD Toolbox           |
|  \\    /   O peration     | Version:  2.3.0                                 |
|   \\  /    A nd           | Web:      www.OpenFOAM.org                      |
|    \\/     M anipulation  |                                                 |
\*---------------------------------------------------------------------------*/
FoamFile
{
    version     2.0;
    format      ascii;
    class       volScalarField;
    location    "200";
    object      k;
}
// * * * * * * * * * * * * * * * * * * * * * * * * * * * * * * * * * * * * * //

dimensions      [0 2 -2 0 0 0 0];

internalField   nonuniform List<scalar> 
28552
(
0.00409853
0.0041012
0.00410424
0.00410772
0.00411176
0.00411648
0.00412205
0.00412871
0.00413675
0.00414661
0.00415889
0.00417445
0.00419459
0.0042216
0.00425485
0.00429606
0.0043474
0.00441168
0.00449269
0.00459552
0.00472738
0.0048981
0.00512366
0.00542346
0.00584667
0.00636581
0.00709402
0.00748414
0.00878317
0.0101275
0.0144744
0.024987
0.0379418
0.0447697
0.00410043
0.00410329
0.00410653
0.00411022
0.0041145
0.0041195
0.00412541
0.00413246
0.00414098
0.00415142
0.00416441
0.00418086
0.00420214
0.00423064
0.00426564
0.00430894
0.00436281
0.00443017
0.00451495
0.00462244
0.00476018
0.00493831
0.0051738
0.00548633
0.00592854
0.00643379
0.00717508
0.00751731
0.00884476
0.0100901
0.014373
0.0248685
0.038217
0.0499997
0.00410243
0.0041055
0.00410895
0.00411287
0.00411741
0.00412272
0.00412898
0.00413646
0.00414549
0.00415656
0.00417032
0.00418775
0.00421025
0.00424038
0.00427729
0.0043229
0.00437956
0.00445034
0.00453934
0.00465208
0.00479649
0.00498308
0.00523
0.00555732
0.00602188
0.00650537
0.0072656
0.00756049
0.00893411
0.0100905
0.0145576
0.0250273
0.0381359
0.0565696
0.00410454
0.00410784
0.00411152
0.00411569
0.00412051
0.00412615
0.0041328
0.00414074
0.00415033
0.00416207
0.00417668
0.00419515
0.00421901
0.00425091
0.00428994
0.00433811
0.00439791
0.00447254
0.00456635
0.00468511
0.00483726
0.00503376
0.00529426
0.00563931
0.0061312
0.00657949
0.00736329
0.00760748
0.00904062
0.0101333
0.0147206
0.0253578
0.0377071
0.0651539
0.00410669
0.00411023
0.00411415
0.00411858
0.00412369
0.00412967
0.00413673
0.00414515
0.00415532
0.00416777
0.00418324
0.00420282
0.00422808
0.00426183
0.00430309
0.00435395
0.00441704
0.00449574
0.00459462
0.00471974
0.00488011
0.00508712
0.00536208
0.00572601
0.00623747
0.00664199
0.00744282
0.00764432
0.00911951
0.0101537
0.014804
0.0254823
0.037266
0.0761011
0.00410893
0.00411273
0.00411691
0.00412161
0.00412704
0.00413339
0.00414087
0.0041498
0.00416059
0.0041738
0.00419022
0.00421097
0.00423774
0.00427351
0.00431718
0.00437098
0.00443768
0.00452086
0.00462535
0.00475754
0.00492711
0.00514595
0.00543733
0.00581967
0.00633661
0.00669805
0.00751847
0.00767664
0.00920004
0.0101841
0.014893
0.0256918
0.0368655
0.0910472
0.00411125
0.00411533
0.00411978
0.00412477
0.00413054
0.00413727
0.00414521
0.00415468
0.00416613
0.00418014
0.00419755
0.00421955
0.00424794
0.00428584
0.00433209
0.00438905
0.00445963
0.00454763
0.0046582
0.00479806
0.00497765
0.00520939
0.00551879
0.00590333
0.00642682
0.00674764
0.00758548
0.00770811
0.00926936
0.0102133
0.0149429
0.0258135
0.036531
0.111579
0.00411361
0.00411801
0.00412276
0.00412806
0.00413418
0.00414131
0.00414973
0.00415978
0.00417191
0.00418677
0.00420523
0.00422857
0.00425866
0.00429884
0.00434784
0.00440816
0.00448291
0.00457608
0.00469317
0.0048413
0.0050317
0.0052774
0.00560635
0.00597696
0.00650638
0.0067897
0.00764097
0.00773718
0.00932381
0.0102353
0.0149607
0.0258727
0.0362676
0.140812
0.004116
0.00412077
0.00412583
0.00413146
0.00413795
0.00414553
0.00415445
0.00416511
0.00417798
0.00419374
0.00421333
0.00423809
0.00427002
0.00431266
0.00436466
0.00442865
0.00450796
0.00460685
0.0047312
0.00488856
0.00509118
0.00535271
0.00570368
0.00604424
0.00658011
0.00682737
0.00769412
0.00776887
0.00938031
0.0102819
0.0149694
0.026046
0.035723
0.186931
0.00411843
0.00412357
0.00412897
0.00413495
0.00414184
0.00414986
0.00415932
0.00417062
0.00418427
0.00420099
0.00422177
0.00424804
0.00428192
0.00432718
0.00438238
0.00445033
0.00453457
0.00463964
0.00477191
0.00493938
0.00515545
0.00543452
0.00579019
0.00610181
0.00664219
0.00685538
0.00773312
0.00779142
0.00941479
0.0103101
0.0149302
0.0261838
0.0350786
0.266048
0.00412097
0.00412653
0.00413228
0.00413864
0.00414595
0.00415446
0.0041645
0.00417649
0.00419098
0.00420873
0.0042308
0.00425872
0.00429473
0.00434284
0.00440156
0.00447386
0.00456356
0.0046755
0.00481659
0.00499537
0.00522661
0.00551645
0.00587003
0.00615272
0.00669811
0.00687603
0.00776817
0.00780786
0.00944984
0.0103371
0.0149018
0.0262076
0.0349701
0.428296
0.0041235
0.00412945
0.00413558
0.00414233
0.00415007
0.00415909
0.00416971
0.0041824
0.00419775
0.00421655
0.00423993
0.00426951
0.00430769
0.0043587
0.00442097
0.00449766
0.00459283
0.00471165
0.00486153
0.00505155
0.00529775
0.00558574
0.0059364
0.00619341
0.00673594
0.00689039
0.00777703
0.00781812
0.00944408
0.0103068
0.0148059
0.0259022
0.0366119
0.926805
0.00412611
0.00413249
0.00413901
0.00414617
0.00415438
0.00416393
0.00417519
0.00418864
0.00420491
0.00422486
0.00424968
0.00428109
0.00432165
0.00437588
0.00444212
0.00452376
0.00462516
0.00475186
0.00491194
0.00511511
0.00537908
0.00565443
0.00600495
0.00623796
0.00678422
0.00691343
0.00780513
0.00784526
0.0094646
0.0103447
0.0147407
0.026156
0.0466693
2.43161
0.0041288
0.00413563
0.00414256
0.00415018
0.00415889
0.00416901
0.00418095
0.00419523
0.0042125
0.00423369
0.00426008
0.00429349
0.00433667
0.00439445
0.00446511
0.00455228
0.00466071
0.00479637
0.00496812
0.00518645
0.00545923
0.0057164
0.00606517
0.00627504
0.00682184
0.0069293
0.00781917
0.00787011
0.00947035
0.010386
0.0146448
0.0264564
0.0857633
5.62906
0.00413153
0.00413882
0.00414617
0.00415426
0.00416349
0.00417421
0.00418686
0.00420199
0.00422031
0.0042428
0.00427081
0.00430631
0.00435222
0.00441369
0.00448893
0.00458184
0.00469753
0.00484241
0.00502615
0.00525979
0.00552551
0.00576405
0.00610811
0.00629632
0.0068372
0.0069284
0.00780816
0.00786588
0.00944529
0.0103431
0.0144989
0.0261067
0.133022
11.1884
0.00413431
0.00414206
0.00414986
0.00415845
0.00416823
0.00417958
0.00419299
0.00420903
0.00422848
0.00425235
0.00428212
0.00431988
0.00436874
0.00443423
0.00451449
0.00461371
0.00473743
0.0048926
0.00508981
0.00532939
0.00559071
0.00581303
0.00615422
0.00632272
0.00685994
0.00693629
0.00780801
0.00787727
0.00942991
0.0103475
0.0143724
0.0276172
0.367309
19.3586
0.00413718
0.00414544
0.00415372
0.00416284
0.00417321
0.00418526
0.00419949
0.00421654
0.00423722
0.00426264
0.00429435
0.00433462
0.00438679
0.0044568
0.00454276
0.00464919
0.00478216
0.00494924
0.00516219
0.00539461
0.00565105
0.00585792
0.00619525
0.00634584
0.00687777
0.00694406
0.00780222
0.007895
0.00940549
0.0103642
0.0143563
0.0400509
0.925051
29.1383
0.00414009
0.00414886
0.00415763
0.00416733
0.00417832
0.00419109
0.0042062
0.00422431
0.00424629
0.00427333
0.0043071
0.00435002
0.0044057
0.00448049
0.00457248
0.00468655
0.00482932
0.00500903
0.00522822
0.00544795
0.00569856
0.00589064
0.00622219
0.00635693
0.00687944
0.0069385
0.0077804
0.00789071
0.00936465
0.0103279
0.014188
0.0529384
1.58127
38.874
0.00414307
0.00415236
0.00416166
0.00417196
0.00418362
0.00419716
0.0042132
0.00423245
0.00425583
0.00428463
0.00432065
0.00436648
0.004426
0.00450608
0.00460479
0.00472746
0.00488137
0.00507558
0.0052892
0.00549725
0.00574207
0.00591991
0.00624681
0.00636559
0.00688283
0.0069353
0.00776215
0.00790793
0.00931983
0.0103986
0.0161201
0.128862
2.78622
46.7315
0.00414611
0.00415593
0.00416575
0.00417667
0.00418898
0.00420329
0.00422025
0.00424062
0.00426539
0.00429591
0.00433411
0.00438275
0.00444598
0.00453114
0.00463626
0.00476705
0.00493142
0.00513015
0.00533667
0.00553345
0.00577157
0.00593728
0.00625625
0.00636422
0.0068683
0.00691896
0.00772376
0.00787845
0.00924823
0.0102914
0.0160016
0.146273
3.27082
52.2157
0.00414921
0.00415957
0.00416994
0.00418149
0.00419449
0.0042096
0.00422752
0.00424906
0.00427528
0.00430763
0.00434814
0.00439977
0.00446698
0.00455762
0.00466971
0.00480946
0.0049855
0.00518246
0.00538358
0.00557086
0.00580428
0.00595852
0.00627411
0.00637061
0.00686772
0.00692189
0.00769646
0.00790595
0.00919426
0.0105944
0.0238928
0.303953
4.56838
55.553
0.0041524
0.0041633
0.00417423
0.00418642
0.00420011
0.00421602
0.00423491
0.00425764
0.00428532
0.00431949
0.00436232
0.00441696
0.00448814
0.00458423
0.00470327
0.0048519
0.00503756
0.00522669
0.0054217
0.00559981
0.00582686
0.00597098
0.00627914
0.00636672
0.00685163
0.0069043
0.00765677
0.00786825
0.00910908
0.0105074
0.026838
0.394742
5.15194
57.0466
0.00415564
0.00416711
0.00417859
0.00419144
0.00420583
0.00422254
0.00424241
0.00426633
0.00429548
0.00433148
0.00437664
0.00443427
0.00450942
0.00461096
0.00473693
0.00489442
0.00508199
0.00526385
0.00545313
0.0056229
0.0058442
0.00597938
0.00628107
0.00636077
0.00683554
0.00688594
0.00762016
0.00783812
0.00902749
0.0104331
0.0303405
0.493724
5.67291
57.4905
0.0041589
0.00417091
0.00418297
0.0041965
0.0042116
0.00422915
0.00425001
0.00427517
0.00430584
0.00434375
0.00439134
0.00445213
0.00453147
0.00463881
0.00477223
0.00493934
0.00512423
0.00529975
0.00548402
0.0056465
0.00586325
0.00599128
0.00628537
0.00636375
0.0068201
0.00688788
0.00757447
0.00784226
0.00898798
0.0114951
0.0514833
0.730005
6.80482
57.0351
0.00416219
0.00417473
0.00418738
0.00420158
0.0042174
0.00423577
0.00425762
0.00428398
0.00431615
0.00435593
0.00440589
0.00446975
0.00455316
0.00466611
0.00480667
0.00498041
0.0051597
0.00532883
0.00550721
0.00566256
0.00587254
0.00599368
0.00627864
0.00635232
0.00679434
0.00686241
0.00752508
0.00777531
0.0088871
0.0113494
0.0559742
0.854192
7.45374
55.9349
0.00416559
0.00417871
0.00419195
0.00420685
0.0042234
0.0042426
0.00426546
0.00429307
0.00432678
0.00436848
0.00442087
0.00448788
0.00457548
0.00469419
0.00484213
0.00501791
0.00519212
0.00535544
0.00552863
0.00567761
0.00588197
0.0059967
0.00627491
0.00634324
0.00677507
0.00684301
0.00747981
0.00773085
0.00880905
0.0118569
0.071996
1.07394
8.66465
54.7286
0.00416903
0.00418273
0.00419657
0.00421219
0.00422948
0.00424955
0.00427345
0.00430233
0.00433763
0.00438131
0.00443623
0.00450652
0.00459849
0.00472325
0.00487898
0.00505373
0.00522347
0.00538174
0.00555019
0.00569393
0.0058929
0.00600305
0.00627235
0.00634119
0.00675489
0.00683475
0.00743169
0.00771428
0.0087934
0.0137756
0.106465
1.44491
10.7527
53.3079
0.00417255
0.00418683
0.00420129
0.00421764
0.00423568
0.00425661
0.00428156
0.00431173
0.00434862
0.0043943
0.00445176
0.00452533
0.00462167
0.00475248
0.00491582
0.00508566
0.00525069
0.005404
0.00556714
0.00570588
0.00589844
0.00600437
0.00626499
0.00633178
0.00673128
0.00681297
0.00738376
0.00767201
0.00872038
0.0147406
0.131718
1.7854
12.9476
51.8535
0.00417613
0.00419103
0.00420612
0.00422323
0.00424204
0.00426386
0.00428988
0.00432139
0.00435994
0.0044077
0.0044678
0.00454482
0.00464576
0.00478295
0.00495003
0.00511542
0.00527596
0.0054247
0.00558268
0.0057174
0.00590309
0.00600739
0.00625652
0.00632857
0.00670631
0.00680418
0.00733615
0.00766171
0.0089472
0.0207519
0.212263
2.43108
16.108
50.3556
0.00417975
0.00419526
0.00421099
0.00422886
0.00424845
0.00427115
0.00429826
0.0043311
0.0043713
0.00442114
0.00448388
0.00456433
0.00466987
0.00481342
0.00498074
0.00514164
0.00529749
0.00544176
0.00559451
0.00572508
0.00590372
0.00600537
0.00624373
0.00631719
0.00667653
0.00678094
0.00728196
0.00761991
0.00903624
0.0246175
0.275122
3.07033
19.6758
48.7293
0.00418341
0.00419954
0.00421592
0.00423455
0.00425492
0.0042785
0.00430667
0.00434084
0.00438268
0.00443457
0.00449992
0.00458374
0.00469378
0.00484356
0.00500815
0.00516459
0.00531564
0.00545555
0.00560277
0.00572921
0.00590095
0.00599934
0.00622842
0.00630009
0.00664543
0.00674821
0.00722503
0.00754447
0.00892731
0.0252721
0.311541
3.67344
23.7545
47.5107
0.00418716
0.00420395
0.00422099
0.0042404
0.00426157
0.00428606
0.00431534
0.00435088
0.00439444
0.00444847
0.00451654
0.00460391
0.00471868
0.00487454
0.00503494
0.0051874
0.00533408
0.00547021
0.00561234
0.00573555
0.00590072
0.00599734
0.00621667
0.0062901
0.0066184
0.00672726
0.00717386
0.00751759
0.00926372
0.0339253
0.433105
4.75486
28.8331
46.658
0.004191
0.0042085
0.0042262
0.00424643
0.00426841
0.00429382
0.00432424
0.00436118
0.00440649
0.00446271
0.00453358
0.00462458
0.00474433
0.00490437
0.00506079
0.00520957
0.00535191
0.00548481
0.00562168
0.00574257
0.0059004
0.00599662
0.00620455
0.00628136
0.00659036
0.00670605
0.00712167
0.00749347
0.00970563
0.0443566
0.580116
6.05264
34.809
45.9743
0.00419489
0.0042131
0.00423148
0.00425254
0.00427534
0.00430169
0.00433327
0.00437165
0.00441876
0.00447727
0.00455106
0.00464587
0.00477071
0.00493285
0.00508532
0.00523065
0.00536853
0.00549849
0.00562969
0.00574878
0.00589831
0.00599514
0.00619006
0.00627194
0.00655978
0.00668352
0.00706978
0.00749779
0.0107228
0.0631532
0.811881
7.86088
40.6875
45.36
0.00419884
0.00421779
0.00423685
0.00425875
0.00428238
0.00430966
0.0043424
0.00438222
0.00443112
0.00449188
0.00456856
0.00466711
0.00479695
0.00495896
0.00510734
0.00524915
0.00538234
0.00550926
0.00563462
0.00575152
0.00589328
0.00598912
0.00617329
0.0062557
0.00652732
0.00665107
0.00701285
0.00745109
0.0110414
0.073464
0.989097
9.57533
46.0947
45.1081
0.00420287
0.00422262
0.00424237
0.00426515
0.00428963
0.00431788
0.00435181
0.00439313
0.0044439
0.004507
0.00458667
0.00468913
0.00482412
0.00498392
0.00512823
0.00526669
0.00539522
0.00551944
0.00563905
0.00575437
0.00588824
0.00598419
0.00615694
0.00624209
0.00649594
0.00662298
0.00696136
0.00747095
0.0125208
0.100826
1.31657
11.8168
50.8403
45.2097
0.00420701
0.00422759
0.00424803
0.0042717
0.00429704
0.00432627
0.00436144
0.00440429
0.00445696
0.00452246
0.0046052
0.00471167
0.00485149
0.00500775
0.00514806
0.00528343
0.00540741
0.00552927
0.0056431
0.00575729
0.00588303
0.00597953
0.0061404
0.00622861
0.00646409
0.00659417
0.00691042
0.00750909
0.0143538
0.133852
1.70012
14.2391
54.9418
45.5218
0.00421126
0.00423266
0.00425383
0.00427839
0.0043046
0.00433484
0.00437127
0.00441568
0.00447031
0.00453825
0.00462413
0.00473469
0.00487779
0.00503063
0.00516701
0.00529948
0.00541884
0.00553855
0.00564642
0.00575965
0.00587703
0.00597412
0.00612303
0.00621388
0.00643156
0.00656347
0.00686119
0.00758185
0.0168964
0.177874
2.17503
16.9197
58.2743
45.9735
0.00421558
0.00423782
0.00425971
0.00428518
0.00431229
0.00434354
0.00438125
0.00442725
0.00448386
0.0045543
0.00464337
0.00475807
0.00490298
0.00505249
0.0051849
0.00531457
0.00542925
0.00554693
0.00564883
0.00576123
0.00587033
0.00596798
0.00610528
0.00619845
0.00639904
0.00653236
0.0068164
0.00773107
0.0208021
0.240082
2.77342
19.798
60.8205
46.5133
0.0042201
0.00424317
0.00426582
0.00429221
0.00432023
0.00435254
0.00439158
0.00443922
0.0044979
0.00457094
0.00466334
0.00478225
0.00492751
0.00507369
0.00520214
0.00532911
0.00543915
0.00555495
0.00565087
0.00576263
0.00586337
0.00596181
0.00608726
0.00618305
0.00636628
0.00650146
0.00678134
0.00804376
0.0272762
0.331748
3.54825
22.962
62.5996
47.01
0.00422477
0.00424868
0.0042721
0.00429942
0.00432837
0.00436175
0.00440214
0.00445146
0.00451224
0.0045879
0.00468367
0.00480675
0.004951
0.0050939
0.00521836
0.00534269
0.00544798
0.00556196
0.00565179
0.00576285
0.00585536
0.00595405
0.00606831
0.00616517
0.00633277
0.00646727
0.00674248
0.00830419
0.0332688
0.425774
4.36958
25.9963
63.7385
47.5668
0.00422955
0.00425429
0.00427851
0.00430677
0.00433668
0.00437116
0.00441296
0.00446402
0.00452698
0.00460539
0.00470468
0.00483197
0.00497406
0.00511372
0.00523424
0.005356
0.00545666
0.00556883
0.00565285
0.00576317
0.00584777
0.00594692
0.00605015
0.00614892
0.00630071
0.00643828
0.00675387
0.00937284
0.0505274
0.623192
5.64208
29.2507
64.3509
47.9356
0.00423453
0.0042601
0.00428512
0.00431434
0.00434521
0.00438083
0.00442405
0.00447687
0.00454204
0.00462323
0.00472606
0.00485743
0.00499627
0.00513273
0.00524925
0.00536849
0.00546443
0.00557484
0.00565285
0.00576236
0.00583892
0.00593797
0.00603044
0.00612942
0.00626665
0.00640351
0.00674225
0.0100777
0.0633905
0.794168
6.84567
32.1054
64.5538
48.2693
0.00423977
0.00426617
0.00429203
0.00432221
0.00435407
0.00439086
0.00443557
0.00449022
0.00455768
0.00464173
0.00474818
0.00488266
0.00501817
0.00515141
0.00526393
0.00538065
0.00547183
0.00558044
0.00565248
0.00576098
0.00582982
0.00592826
0.00601082
0.00610906
0.00623321
0.00636979
0.00675536
0.0112172
0.0830664
1.03434
8.3666
34.751
64.4127
48.5865
0.00424521
0.00427243
0.00429917
0.00433033
0.00436322
0.00440124
0.0044475
0.00450407
0.00457394
0.00466101
0.00477123
0.00490792
0.00504012
0.00517015
0.00527878
0.005393
0.00547967
0.00558639
0.00565292
0.00576023
0.00582186
0.00591973
0.00599259
0.00609079
0.00620191
0.00634724
0.00691312
0.0144867
0.127872
1.45939
10.575
37.3328
63.9893
48.7352
0.00425078
0.00427883
0.00430645
0.00433859
0.00437251
0.00441178
0.00445961
0.00451811
0.0045904
0.00468051
0.00479442
0.00493251
0.0050614
0.00518832
0.00529305
0.00540491
0.00548697
0.005592
0.00565277
0.00575906
0.00581317
0.00591031
0.00597335
0.00607051
0.00616912
0.00631869
0.00701286
0.0169339
0.165896
1.87142
12.6447
39.3906
63.4954
48.8224
0.00425662
0.0042855
0.00431404
0.00434717
0.00438218
0.00442275
0.00447223
0.00453276
0.0046076
0.0047009
0.00481855
0.00495729
0.00508285
0.00520664
0.00530753
0.00541697
0.00549456
0.00559771
0.00565303
0.00575794
0.005805
0.00590104
0.00595492
0.00605088
0.00613859
0.00630656
0.00735684
0.022928
0.24299
2.51303
15.0203
41.1808
62.781
48.8226
0.00426254
0.00429226
0.00432174
0.0043559
0.00439201
0.00443394
0.00448513
0.00454778
0.00462527
0.00472188
0.0048433
0.004982
0.00510425
0.00522489
0.00532203
0.00542897
0.00550233
0.00560339
0.00565379
0.00575694
0.00579766
0.00589232
0.00593773
0.00603281
0.00611311
0.00634661
0.00840532
0.0372215
0.39045
3.46361
17.6709
42.757
62.0455
48.6042
0.00426857
0.00429915
0.00432956
0.00436475
0.00440197
0.00444528
0.0044982
0.00456297
0.00464313
0.00474307
0.00486812
0.00500616
0.00512504
0.00524253
0.00533583
0.00544025
0.00550925
0.00560819
0.00565348
0.00575477
0.005789
0.00588188
0.00591886
0.00601208
0.00608662
0.00639308
0.00952687
0.0520526
0.542548
4.41924
20.0792
43.9882
61.3205
48.2156
0.00427504
0.00430645
0.00433785
0.00437407
0.00441245
0.00445721
0.00451193
0.00457892
0.00466186
0.0047652
0.00489375
0.00503045
0.00514582
0.00525998
0.00534932
0.00545095
0.00551547
0.00561188
0.00565206
0.00575084
0.00577891
0.00586902
0.00589853
0.00598862
0.00606116
0.00646901
0.0110599
0.0716248
0.732555
5.51915
22.3484
44.91
60.6303
47.8569
0.0042819
0.00431415
0.00434655
0.00438381
0.0044234
0.00446967
0.00452626
0.00459556
0.00468136
0.00478818
0.00492003
0.00505488
0.00516662
0.00527731
0.00536258
0.00546121
0.00552118
0.00561478
0.00564993
0.00574581
0.00576804
0.0058549
0.00587744
0.00596395
0.00603663
0.0065622
0.0127899
0.0933917
0.940576
6.71966
24.4279
45.5475
59.662
47.6145
0.00428891
0.004322
0.00435542
0.00439373
0.00443454
0.00448234
0.00454083
0.00461246
0.00470114
0.00481141
0.00494641
0.00507929
0.00518739
0.00529467
0.00537581
0.00547149
0.00552686
0.00561778
0.00564778
0.005741
0.00575728
0.00584102
0.0058566
0.00593943
0.00601139
0.00663827
0.014313
0.114127
1.15037
7.89104
26.2282
45.8755
58.6881
47.5287
0.00429631
0.00433027
0.00436476
0.00440417
0.0044463
0.00449578
0.00455634
0.00463054
0.00472239
0.00483639
0.00497438
0.0051052
0.0052097
0.00531342
0.00539077
0.00548323
0.00553466
0.00562227
0.00564831
0.00573787
0.0057496
0.00582934
0.00583944
0.00592103
0.00603039
0.00723688
0.0217837
0.187771
1.64642
9.65358
28.2557
46.2067
57.6694
47.2478
0.00430422
0.00433906
0.00437466
0.00441519
0.00445871
0.00450997
0.00457271
0.00464959
0.00474474
0.0048625
0.00500321
0.00513212
0.00523304
0.00533319
0.00540682
0.00549606
0.00554354
0.00562789
0.00564978
0.00573577
0.0057425
0.00581832
0.00582241
0.00590368
0.00606049
0.00791646
0.0295818
0.260789
2.12371
11.3072
29.908
46.4036
56.9184
46.7717
0.0043123
0.00434804
0.00438477
0.00442645
0.00447141
0.00452451
0.00458951
0.00466918
0.00476771
0.00488926
0.00503255
0.00516001
0.00525739
0.00535401
0.00542393
0.00550983
0.00555336
0.00563414
0.00565189
0.0057338
0.00573566
0.00580692
0.00580582
0.00589046
0.00614622
0.00919579
0.0430676
0.374088
2.7554
13.1518
31.4345
46.5247
56.0934
46.2667
0.00432069
0.00435736
0.00439524
0.00443812
0.00448459
0.00453964
0.00460701
0.0046896
0.00479166
0.00491704
0.00506273
0.00518914
0.00528299
0.00537597
0.00544218
0.00552446
0.00556406
0.00564083
0.00565464
0.00573192
0.00572928
0.00579554
0.00579061
0.0058879
0.00634453
0.0115412
0.0650841
0.53615
3.53322
15.0579
32.8199
46.5898
55.2909
45.6864
0.00432975
0.00436736
0.00440645
0.00445057
0.00449866
0.00455578
0.00462568
0.00471136
0.0048171
0.0049463
0.00509409
0.00521977
0.00531
0.00539918
0.00546162
0.00554
0.0055756
0.00564806
0.00565785
0.0057302
0.00572295
0.00578401
0.0057761
0.00589471
0.00662937
0.0145517
0.0913309
0.716596
4.33742
16.8377
33.9749
46.5697
54.5131
45.0894
0.00433916
0.00437776
0.00441808
0.0044635
0.0045133
0.0045726
0.00464515
0.00473407
0.0048436
0.00497662
0.00512637
0.00525187
0.0053385
0.00542382
0.00548246
0.00555671
0.00558829
0.00565603
0.00566188
0.00572887
0.00571711
0.00577269
0.00576437
0.00592591
0.00714004
0.0194496
0.13079
0.961963
5.31464
18.6234
34.9596
46.4044
53.6902
44.5247
0.00434893
0.00438856
0.00443016
0.00447694
0.00452855
0.00459018
0.00466552
0.00475785
0.00487133
0.00500817
0.00515979
0.00528582
0.0053689
0.00545029
0.0055052
0.00557507
0.0056027
0.00566538
0.00566545
0.00572834
0.00571274
0.00576296
0.00576029
0.00601682
0.00815449
0.0281728
0.193847
1.30832
6.53553
20.4318
35.8379
46.1982
52.8698
43.8835
0.00435944
0.00440013
0.00444307
0.00449131
0.00454489
0.00460901
0.00468737
0.00478334
0.00490092
0.00504154
0.00519483
0.00532206
0.00540165
0.00547904
0.00553029
0.00559554
0.00561932
0.00567639
0.00567293
0.00572805
0.00570483
0.00575494
0.00576736
0.00619123
0.00978938
0.0409619
0.278227
1.73092
7.88133
22.1295
36.5748
45.9653
52.1129
43.1742
0.00437049
0.00441229
0.00445665
0.00450645
0.00456214
0.00462894
0.00471054
0.00481036
0.00493221
0.00507658
0.00523143
0.00535965
0.00543709
0.00551049
0.00555822
0.00561859
0.00563864
0.00568963
0.00568285
0.00573034
0.00570042
0.00574767
0.00579746
0.00658128
0.0129762
0.0636091
0.411527
2.31337
9.43907
23.8297
37.2542
45.7117
51.3048
42.3895
0.00438205
0.00442502
0.00447083
0.0045223
0.00458026
0.0046499
0.00473491
0.00483877
0.00496499
0.00511303
0.00526938
0.00539841
0.00547542
0.00554497
0.00558929
0.00564465
0.00566095
0.00570558
0.00569544
0.00573473
0.00570142
0.00574911
0.00587457
0.00728325
0.0181542
0.0969561
0.588061
3.00257
11.0786
25.3955
37.8179
45.4455
50.5414
41.5298
0.00439436
0.00443855
0.00448593
0.00453922
0.00459965
0.00467237
0.00476107
0.00486924
0.00499998
0.00515163
0.0053093
0.0054389
0.00551728
0.00558309
0.00562429
0.00567446
0.00568717
0.00572499
0.00571158
0.00574231
0.00570909
0.00577132
0.00607298
0.00875831
0.0279
0.153074
0.850209
3.89138
12.8927
26.933
38.3319
45.1648
49.7356
40.5771
0.0044075
0.00445301
0.00450206
0.00455733
0.00462046
0.00469654
0.00478921
0.00490196
0.00503735
0.0051925
0.00535128
0.00548144
0.00556302
0.00562539
0.00566384
0.00570885
0.00571822
0.005749
0.00573244
0.00575483
0.00572637
0.00583581
0.00652575
0.0116987
0.0452529
0.241781
1.21523
4.97767
14.7907
28.4021
38.7834
44.8734
48.9414
39.5075
0.00442129
0.0044682
0.00451905
0.00457649
0.00464254
0.00472222
0.00481917
0.00493674
0.00507688
0.00523545
0.00539532
0.00552625
0.00561217
0.00567238
0.00570871
0.00574882
0.00575538
0.00577917
0.00575998
0.00577585
0.00576625
0.00601103
0.00760255
0.0179515
0.0780836
0.389479
1.74616
6.3545
16.8422
29.8619
39.2159
44.5778
48.0911
38.2672
0.00443597
0.0044844
0.00453719
0.00459703
0.00466629
0.0047499
0.00485145
0.00497414
0.00511914
0.00528103
0.00544187
0.0055737
0.00566362
0.00572437
0.00575943
0.0057952
0.00579976
0.00581699
0.00579682
0.00581358
0.00586902
0.00650888
0.0103521
0.0321304
0.143401
0.644434
2.53703
8.11042
19.0924
31.3357
39.6329
44.2748
47.2696
36.7999
0.00445135
0.00450133
0.00455614
0.00461851
0.0046911
0.00477876
0.00488499
0.00501272
0.00516229
0.00532699
0.0054884
0.0056209
0.00571411
0.00577687
0.0058115
0.00584392
0.00584775
0.0058603
0.00584429
0.00588591
0.00613077
0.0077851
0.01668
0.0609389
0.259128
1.03603
3.59417
10.1562
21.3943
32.8064
40.116
44.0812
46.2677
35.0957
0.00446475
0.00451612
0.00457273
0.00463738
0.00471296
0.00480422
0.00491457
0.00504667
0.00520007
0.00536704
0.00552896
0.00566217
0.00575809
0.00582295
0.00585793
0.00588843
0.00589283
0.0059039
0.00590124
0.00601514
0.00668576
0.0104665
0.0290802
0.112662
0.446828
1.60343
4.94392
12.4264
23.6834
34.188
40.5547
43.8151
45.496
33.4213
0.00447634
0.00452895
0.00458715
0.00465384
0.00473206
0.00482648
0.00494044
0.00507628
0.0052329
0.00540173
0.00556409
0.00569801
0.00579618
0.00586298
0.00589859
0.00592802
0.00593386
0.0059474
0.00597442
0.0062472
0.00775972
0.0154852
0.0506943
0.19506
0.716881
2.34124
6.54759
14.8954
26.1806
35.7991
41.4702
44.4195
45.0198
30.9961
0.00409674
0.00409924
0.0041021
0.0041054
0.00410921
0.00411367
0.00411893
0.00412522
0.00413283
0.00414215
0.00415376
0.00416849
0.00418758
0.00421321
0.00424486
0.00428415
0.00433316
0.00439462
0.00447216
0.00457071
0.00469718
0.00486106
0.00507752
0.00536554
0.00577113
0.00629217
0.00700914
0.00745255
0.00875197
0.0101708
0.0146373
0.0252099
0.0382032
0.0404144
0.00409672
0.00409919
0.00410201
0.00410524
0.00410898
0.00411334
0.00411849
0.00412462
0.00413201
0.00414106
0.00415231
0.00416654
0.00418492
0.00420952
0.00423984
0.00427738
0.00432409
0.00438252
0.00445604
0.0045492
0.00466837
0.00482229
0.0050246
0.00529294
0.00566644
0.00616441
0.00685682
0.00730942
0.00854424
0.00981755
0.0138724
0.0238528
0.0385423
0.0363384
0.00409668
0.00409911
0.00410188
0.00410505
0.0041087
0.00411297
0.00411798
0.00412394
0.00413112
0.00413987
0.00415073
0.00416443
0.00418208
0.00420562
0.00423455
0.00427028
0.00431462
0.00436993
0.00443934
0.00452702
0.0046388
0.00478266
0.00497083
0.00521955
0.00556215
0.00602645
0.00671534
0.0071383
0.00835342
0.00940023
0.0130317
0.0219716
0.0389567
0.0330342
0.00409661
0.004099
0.00410171
0.00410481
0.00410839
0.00411254
0.00411742
0.0041232
0.00413015
0.00413862
0.00414908
0.00416225
0.00417917
0.00420165
0.0042292
0.00426316
0.00430521
0.00435753
0.00442303
0.00450557
0.0046105
0.00474516
0.00492061
0.00515189
0.00546816
0.00589716
0.00655912
0.00698621
0.00813563
0.00912812
0.0124911
0.0204623
0.038955
0.0302459
0.00409654
0.00409887
0.00410153
0.00410456
0.00410804
0.00411208
0.00411681
0.00412242
0.00412914
0.00413729
0.00414735
0.00415997
0.00417613
0.00419753
0.00422369
0.00425584
0.00429556
0.00434486
0.00440641
0.00448379
0.00458187
0.00470739
0.00487031
0.00508447
0.00537531
0.00576974
0.00636692
0.0068249
0.00788509
0.00884342
0.0118314
0.0187805
0.0385587
0.0278834
0.00409641
0.0040987
0.00410129
0.00410424
0.00410762
0.00411154
0.00411613
0.00412154
0.00412801
0.00413585
0.00414549
0.00415755
0.00417294
0.00419324
0.00421799
0.00424834
0.00428574
0.00433206
0.00438976
0.00446214
0.00455368
0.00467054
0.0048218
0.00502019
0.00528817
0.00565162
0.00619442
0.00671142
0.0077245
0.00866158
0.0114853
0.0176579
0.036791
0.0258354
0.00409627
0.0040985
0.00410102
0.00410389
0.00410717
0.00411097
0.0041154
0.00412062
0.00412684
0.00413436
0.00414357
0.00415506
0.00416967
0.00418885
0.00421218
0.00424071
0.00427579
0.00431913
0.00437301
0.00444044
0.00452553
0.00463392
0.00477386
0.00495703
0.00520333
0.00553741
0.00603033
0.00660151
0.00757698
0.00854806
0.0112414
0.0170186
0.0356671
0.0240279
0.00409605
0.00409822
0.00410067
0.00410344
0.00410662
0.00411028
0.00411454
0.00411954
0.0041255
0.00413266
0.00414142
0.00415229
0.00416606
0.00418406
0.00420589
0.0042325
0.00426512
0.00430533
0.00435517
0.0044174
0.00449571
0.00459524
0.00472336
0.00489066
0.00511453
0.00541806
0.00586013
0.00646189
0.00742464
0.0083701
0.0109123
0.0159413
0.0355638
0.0224355
0.00409579
0.00409788
0.00410025
0.00410293
0.00410599
0.0041095
0.00411358
0.00411837
0.00412403
0.00413083
0.00413911
0.00414934
0.00416224
0.00417902
0.00419929
0.00422392
0.00425401
0.00429098
0.00433667
0.00439355
0.00446492
0.00455537
0.00467142
0.00482252
0.00502371
0.0052961
0.00568759
0.00623964
0.00721918
0.00809781
0.010445
0.0142697
0.0352186
0.0210502
0.00409547
0.0040975
0.00409978
0.00410236
0.0041053
0.00410866
0.00411256
0.00411711
0.00412249
0.00412892
0.00413671
0.0041463
0.00415833
0.00417389
0.00419262
0.0042153
0.00424292
0.00427673
0.0043184
0.00437013
0.00443486
0.00451669
0.00462143
0.00475748
0.00493797
0.00518205
0.00552959
0.00602343
0.00687387
0.00788474
0.0101083
0.0132168
0.0335069
0.0198291
0.00409511
0.00409706
0.00409926
0.00410173
0.00410454
0.00410776
0.00411147
0.00411578
0.00412086
0.00412691
0.00413421
0.00414315
0.00415431
0.00416865
0.00418584
0.00420656
0.00423171
0.00426238
0.00430007
0.00434669
0.00440488
0.00447826
0.00457194
0.00469333
0.00485388
0.00507067
0.00537695
0.00581468
0.00654529
0.00761746
0.00977006
0.0122316
0.032236
0.0187449
0.0040947
0.00409659
0.00409869
0.00410106
0.00410374
0.0041068
0.00411031
0.00411439
0.00411917
0.00412484
0.00413164
0.00413994
0.00415023
0.00416337
0.00417904
0.00419787
0.00422061
0.00424825
0.00428209
0.00432383
0.00437577
0.00444111
0.00452434
0.00463196
0.00477396
0.00496555
0.00523473
0.0056211
0.0062512
0.00720515
0.00954051
0.0116415
0.0309399
0.0177707
0.00409424
0.00409605
0.00409806
0.00410032
0.00410286
0.00410576
0.00410908
0.00411291
0.00411739
0.00412267
0.00412898
0.00413662
0.00414604
0.00415798
0.00417215
0.00418908
0.00420945
0.00423409
0.00426412