# vtk DataFile Version 2.0
track0
ASCII
DATASET POLYDATA
POINTS 7672 float
0.0634193 -0.333333 -0.266338
0.0643872 -0.333333 -0.268059
0.065452 -0.333333 -0.269904
0.0675815 -0.333333 -0.273595
0.0687567 -0.333333 -0.275545
0.0711071 -0.333333 -0.279444
0.0724055 -0.333333 -0.281485
0.0750023 -0.333333 -0.285568
0.0764327 -0.333333 -0.287728
0.0792933 -0.333333 -0.292048
0.0808709 -0.333333 -0.29431
0.0840261 -0.333333 -0.298833
0.0857647 -0.333333 -0.301203
0.089242 -0.333333 -0.305944
0.0911575 -0.333333 -0.308422
0.0949885 -0.333333 -0.31338
0.0971013 -0.333333 -0.315937
0.101327 -0.333333 -0.321051
0.103655 -0.333333 -0.323685
0.108313 -0.333333 -0.328954
0.110879 -0.333333 -0.331656
0.116011 -0.333333 -0.33706
0.118834 -0.333333 -0.339876
0.124479 -0.333333 -0.34551
0.127592 -0.333333 -0.34832
0.133819 -0.333333 -0.353941
0.13725 -0.333333 -0.35673
0.144112 -0.333333 -0.362308
0.147887 -0.333333 -0.365139
0.155438 -0.333333 -0.370802
0.159597 -0.333333 -0.373566
0.167915 -0.333333 -0.379095
0.172496 -0.333333 -0.381718
0.181658 -0.333333 -0.386964
0.1867 -0.333333 -0.389493
0.196783 -0.333333 -0.394549
0.202124 -0.333333 -0.396725
0.212805 -0.333333 -0.401077
0.218145 -0.333333 -0.402968
0.228826 -0.333333 -0.40675
0.234171 -0.333333 -0.408169
0.24486 -0.333333 -0.411007
0.250205 -0.333333 -0.41213
0.260896 -0.333333 -0.414376
0.266242 -0.333333 -0.415219
0.276934 -0.333333 -0.416904
0.282281 -0.333333 -0.417364
0.292974 -0.333333 -0.418284
0.298321 -0.333333 -0.418549
0.309015 -0.333333 -0.419078
0.0665167 -0.333333 -0.27175
0.0675815 -0.333333 -0.273595
0.0687567 -0.333333 -0.275545
0.0711071 -0.333333 -0.279444
0.0724055 -0.333333 -0.281485
0.0750023 -0.333333 -0.285568
0.0764327 -0.333333 -0.287728
0.0792933 -0.333333 -0.292048
0.0808709 -0.333333 -0.29431
0.0840261 -0.333333 -0.298833
0.0857647 -0.333333 -0.301203
0.089242 -0.333333 -0.305944
0.0911575 -0.333333 -0.308422
0.0949885 -0.333333 -0.31338
0.0971013 -0.333333 -0.315937
0.101327 -0.333333 -0.321051
0.103655 -0.333333 -0.323685
0.108313 -0.333333 -0.328954
0.110879 -0.333333 -0.331656
0.116011 -0.333333 -0.33706
0.118834 -0.333333 -0.339876
0.124479 -0.333333 -0.34551
0.127592 -0.333333 -0.34832
0.133819 -0.333333 -0.353941
0.13725 -0.333333 -0.35673
0.144112 -0.333333 -0.362308
0.147887 -0.333333 -0.365139
0.155438 -0.333333 -0.370802
0.159597 -0.333333 -0.373566
0.167915 -0.333333 -0.379095
0.172496 -0.333333 -0.381718
0.181658 -0.333333 -0.386964
0.1867 -0.333333 -0.389493
0.196783 -0.333333 -0.394549
0.202124 -0.333333 -0.396725
0.212805 -0.333333 -0.401077
0.218145 -0.333333 -0.402968
0.228826 -0.333333 -0.40675
0.234171 -0.333333 -0.408169
0.24486 -0.333333 -0.411007
0.250205 -0.333333 -0.41213
0.260896 -0.333333 -0.414376
0.266242 -0.333333 -0.415219
0.276934 -0.333333 -0.416904
0.282281 -0.333333 -0.417364
0.292974 -0.333333 -0.418284
0.298321 -0.333333 -0.418549
0.309015 -0.333333 -0.419078
0.314361 -0.333333 -0.419083
0.325055 -0.333333 -0.419091
0.0699319 -0.333333 -0.277494
0.0711071 -0.333333 -0.279444
0.0724055 -0.333333 -0.281485
0.0750023 -0.333333 -0.285568
0.0764327 -0.333333 -0.287728
0.0792933 -0.333333 -0.292048
0.0808709 -0.333333 -0.29431
0.0840261 -0.333333 -0.298833
0.0857647 -0.333333 -0.301203
0.089242 -0.333333 -0.305944
0.0911575 -0.333333 -0.308422
0.0949885 -0.333333 -0.31338
0.0971013 -0.333333 -0.315937
0.101327 -0.333333 -0.321051
0.103655 -0.333333 -0.323685
0.108313 -0.333333 -0.328954
0.110879 -0.333333 -0.331656
0.116011 -0.333333 -0.33706
0.118834 -0.333333 -0.339876
0.124479 -0.333333 -0.34551
0.127592 -0.333333 -0.34832
0.133819 -0.333333 -0.353941
0.13725 -0.333333 -0.35673
0.144112 -0.333333 -0.362308
0.147887 -0.333333 -0.365139
0.155438 -0.333333 -0.370802
0.159597 -0.333333 -0.373566
0.167915 -0.333333 -0.379095
0.172496 -0.333333 -0.381718
0.181658 -0.333333 -0.386964
0.1867 -0.333333 -0.389493
0.196783 -0.333333 -0.394549
0.202124 -0.333333 -0.396725
0.212805 -0.333333 -0.401077
0.218145 -0.333333 -0.402968
0.228826 -0.333333 -0.40675
0.234171 -0.333333 -0.408169
0.24486 -0.333333 -0.411007
0.250205 -0.333333 -0.41213
0.260896 -0.333333 -0.414376
0.266242 -0.333333 -0.415219
0.276934 -0.333333 -0.416904
0.282281 -0.333333 -0.417364
0.292974 -0.333333 -0.418284
0.298321 -0.333333 -0.418549
0.309015 -0.333333 -0.419078
0.314361 -0.333333 -0.419083
0.325055 -0.333333 -0.419091
0.330401 -0.333333 -0.418804
0.341094 -0.333333 -0.41823
0.0737039 -0.333333 -0.283527
0.0750023 -0.333333 -0.285568
0.0764327 -0.333333 -0.287728
0.0792933 -0.333333 -0.292048
0.0808709 -0.333333 -0.29431
0.0840261 -0.333333 -0.298833
0.0857647 -0.333333 -0.301203
0.089242 -0.333333 -0.305944
0.0911575 -0.333333 -0.308422
0.0949885 -0.333333 -0.31338
0.0971013 -0.333333 -0.315937
0.101327 -0.333333 -0.321051
0.103655 -0.333333 -0.323685
0.108313 -0.333333 -0.328954
0.110879 -0.333333 -0.331656
0.116011 -0.333333 -0.33706
0.118834 -0.333333 -0.339876
0.124479 -0.333333 -0.34551
0.127592 -0.333333 -0.34832
0.133819 -0.333333 -0.353941
0.13725 -0.333333 -0.35673
0.144112 -0.333333 -0.362308
0.147887 -0.333333 -0.365139
0.155438 -0.333333 -0.370802
0.159597 -0.333333 -0.373566
0.167915 -0.333333 -0.379095
0.172496 -0.333333 -0.381718
0.181658 -0.333333 -0.386964
0.1867 -0.333333 -0.389493
0.196783 -0.333333 -0.394549
0.202124 -0.333333 -0.396725
0.212805 -0.333333 -0.401077
0.218145 -0.333333 -0.402968
0.228826 -0.333333 -0.40675
0.234171 -0.333333 -0.408169
0.24486 -0.333333 -0.411007
0.250205 -0.333333 -0.41213
0.260896 -0.333333 -0.414376
0.266242 -0.333333 -0.415219
0.276934 -0.333333 -0.416904
0.282281 -0.333333 -0.417364
0.292974 -0.333333 -0.418284
0.298321 -0.333333 -0.418549
0.309015 -0.333333 -0.419078
0.314361 -0.333333 -0.419083
0.325055 -0.333333 -0.419091
0.330401 -0.333333 -0.418804
0.341094 -0.333333 -0.41823
0.346439 -0.333333 -0.417748
0.357131 -0.333333 -0.416784
0.077863 -0.333333 -0.289888
0.0792933 -0.333333 -0.292048
0.0808709 -0.333333 -0.29431
0.0840261 -0.333333 -0.298833
0.0857647 -0.333333 -0.301203
0.089242 -0.333333 -0.305944
0.0911575 -0.333333 -0.308422
0.0949885 -0.333333 -0.31338
0.0971013 -0.333333 -0.315937
0.101327 -0.333333 -0.321051
0.103655 -0.333333 -0.323685
0.108313 -0.333333 -0.328954
0.110879 -0.333333 -0.331656
0.116011 -0.333333 -0.33706
0.118834 -0.333333 -0.339876
0.124479 -0.333333 -0.34551
0.127592 -0.333333 -0.34832
0.133819 -0.333333 -0.353941
0.13725 -0.333333 -0.35673
0.144112 -0.333333 -0.362308
0.147887 -0.333333 -0.365139
0.155438 -0.333333 -0.370802
0.159597 -0.333333 -0.373566
0.167915 -0.333333 -0.379095
0.172496 -0.333333 -0.381718
0.181658 -0.333333 -0.386964
0.1867 -0.333333 -0.389493
0.196783 -0.333333 -0.394549
0.202124 -0.333333 -0.396725
0.212805 -0.333333 -0.401077
0.218145 -0.333333 -0.402968
0.228826 -0.333333 -0.40675
0.234171 -0.333333 -0.408169
0.24486 -0.333333 -0.411007
0.250205 -0.333333 -0.41213
0.260896 -0.333333 -0.414376
0.266242 -0.333333 -0.415219
0.276934 -0.333333 -0.416904
0.282281 -0.333333 -0.417364
0.292974 -0.333333 -0.418284
0.298321 -0.333333 -0.418549
0.309015 -0.333333 -0.419078
0.314361 -0.333333 -0.419083
0.325055 -0.333333 -0.419091
0.330401 -0.333333 -0.418804
0.341094 -0.333333 -0.41823
0.346439 -0.333333 -0.417748
0.357131 -0.333333 -0.416784
0.362476 -0.333333 -0.416038
0.373165 -0.333333 -0.414546
0.0824485 -0.333333 -0.296571
0.0840261 -0.333333 -0.298833
0.0857647 -0.333333 -0.301203
0.089242 -0.333333 -0.305944
0.0911575 -0.333333 -0.308422
0.0949885 -0.333333 -0.31338
0.0971013 -0.333333 -0.315937
0.101327 -0.333333 -0.321051
0.103655 -0.333333 -0.323685
0.108313 -0.333333 -0.328954
0.110879 -0.333333 -0.331656
0.116011 -0.333333 -0.33706
0.118834 -0.333333 -0.339876
0.124479 -0.333333 -0.34551
0.127592 -0.333333 -0.34832
0.133819 -0.333333 -0.353941
0.13725 -0.333333 -0.35673
0.144112 -0.333333 -0.362308
0.147887 -0.333333 -0.365139
0.155438 -0.333333 -0.370802
0.159597 -0.333333 -0.373566
0.167915 -0.333333 -0.379095
0.172496 -0.333333 -0.381718
0.181658 -0.333333 -0.386964
0.1867 -0.333333 -0.389493
0.196783 -0.333333 -0.394549
0.202124 -0.333333 -0.396725
0.212805 -0.333333 -0.401077
0.218145 -0.333333 -0.402968
0.228826 -0.333333 -0.40675
0.234171 -0.333333 -0.408169
0.24486 -0.333333 -0.411007
0.250205 -0.333333 -0.41213
0.260896 -0.333333 -0.414376
0.266242 -0.333333 -0.415219
0.276934 -0.333333 -0.416904
0.282281 -0.333333 -0.417364
0.292974 -0.333333 -0.418284
0.298321 -0.333333 -0.418549
0.309015 -0.333333 -0.419078
0.314361 -0.333333 -0.419083
0.325055 -0.333333 -0.419091
0.330401 -0.333333 -0.418804
0.341094 -0.333333 -0.41823
0.346439 -0.333333 -0.417748
0.357131 -0.333333 -0.416784
0.362476 -0.333333 -0.416038
0.373165 -0.333333 -0.414546
0.378509 -0.333333 -0.413626
0.389197 -0.333333 -0.411787
0.0875033 -0.333333 -0.303573
0.089242 -0.333333 -0.305944
0.0911575 -0.333333 -0.308422
0.0949885 -0.333333 -0.31338
0.0971013 -0.333333 -0.315937
0.101327 -0.333333 -0.321051
0.103655 -0.333333 -0.323685
0.108313 -0.333333 -0.328954
0.110879 -0.333333 -0.331656
0.116011 -0.333333 -0.33706
0.118834 -0.333333 -0.339876
0.124479 -0.333333 -0.34551
0.127592 -0.333333 -0.34832
0.133819 -0.333333 -0.353941
0.13725 -0.333333 -0.35673
0.144112 -0.333333 -0.362308
0.147887 -0.333333 -0.365139
0.155438 -0.333333 -0.370802
0.159597 -0.333333 -0.373566
0.167915 -0.333333 -0.379095
0.172496 -0.333333 -0.381718
0.181658 -0.333333 -0.386964
0.1867 -0.333333 -0.389493
0.196783 -0.333333 -0.394549
0.202124 -0.333333 -0.396725
0.212805 -0.333333 -0.401077
0.218145 -0.333333 -0.402968
0.228826 -0.333333 -0.40675
0.234171 -0.333333 -0.408169
0.24486 -0.333333 -0.411007
0.250205 -0.333333 -0.41213
0.260896 -0.333333 -0.414376
0.266242 -0.333333 -0.415219
0.276934 -0.333333 -0.416904
0.282281 -0.333333 -0.417364
0.292974 -0.333333 -0.418284
0.298321 -0.333333 -0.418549
0.309015 -0.333333 -0.419078
0.314361 -0.333333 -0.419083
0.325055 -0.333333 -0.419091
0.330401 -0.333333 -0.418804
0.341094 -0.333333 -0.41823
[...]
POINT_DATA 7672
 FIELD attributes 2
p 1 7672 float
-979.475 -1094.77 -1225.33 -1486.44 -1632.35 -1924.18 -2076.29 -2380.52 -2542.61 -2866.8 -3046.14 -3404.82 -3602.28 -3997.21 -4219.95 -4665.45 -4908.04 -5393.22 -5647.28 -6155.39 -6421.25 -6952.96 -7270.98 -7907.04 -8267.01 -8986.96 -9312.9 -9964.78 -10307.1 -10991.6 -11383.8 -12168.3 -12515.2 -13209.2 -13530 -14171.5 -14423.8 -14928.4 -15164.2 -15635.8 -15812.6 -16166.3 -16204.7 -16281.6 -16349.4 -16484.9 -16457.1 -16401.3 -16295.4 -16083.5
-1355.88 -1486.44 -1632.35 -1924.18 -2076.29 -2380.52 -2542.61 -2866.8 -3046.14 -3404.82 -3602.28 -3997.21 -4219.95 -4665.45 -4908.04 -5393.22 -5647.28 -6155.39 -6421.25 -6952.96 -7270.98 -7907.04 -8267.01 -8986.96 -9312.9 -9964.78 -10307.1 -10991.6 -11383.8 -12168.3 -12515.2 -13209.2 -13530 -14171.5 -14423.8 -14928.4 -15164.2 -15635.8 -15812.6 -16166.3 -16204.7 -16281.6 -16349.4 -16484.9 -16457.1 -16401.3 -16295.4 -16083.5 -16030.2 -15923.5
-1778.26 -1924.18 -2076.29 -2380.52 -2542.61 -2866.8 -3046.14 -3404.82 -3602.28 -3997.21 -4219.95 -4665.45 -4908.04 -5393.22 -5647.28 -6155.39 -6421.25 -6952.96 -7270.98 -7907.04 -8267.01 -8986.96 -9312.9 -9964.78 -10307.1 -10991.6 -11383.8 -12168.3 -12515.2 -13209.2 -13530 -14171.5 -14423.8 -14928.4 -15164.2 -15635.8 -15812.6 -16166.3 -16204.7 -16281.6 -16349.4 -16484.9 -16457.1 -16401.3 -16295.4 -16083.5 -16030.2 -15923.5 -15803.1 -15562.1
-2228.4 -2380.52 -2542.61 -2866.8 -3046.14 -3404.82 -3602.28 -3997.21 -4219.95 -4665.45 -4908.04 -5393.22 -5647.28 -6155.39 -6421.25 -6952.96 -7270.98 -7907.04 -8267.01 -8986.96 -9312.9 -9964.78 -10307.1 -10991.6 -11383.8 -12168.3 -12515.2 -13209.2 -13530 -14171.5 -14423.8 -14928.4 -15164.2 -15635.8 -15812.6 -16166.3 -16204.7 -16281.6 -16349.4 -16484.9 -16457.1 -16401.3 -16295.4 -16083.5 -16030.2 -15923.5 -15803.1 -15562.1 -15397.5 -15068.3
-2704.71 -2866.8 -3046.14 -3404.82 -3602.28 -3997.21 -4219.95 -4665.45 -4908.04 -5393.22 -5647.28 -6155.39 -6421.25 -6952.96 -7270.98 -7907.04 -8267.01 -8986.96 -9312.9 -9964.78 -10307.1 -10991.6 -11383.8 -12168.3 -12515.2 -13209.2 -13530 -14171.5 -14423.8 -14928.4 -15164.2 -15635.8 -15812.6 -16166.3 -16204.7 -16281.6 -16349.4 -16484.9 -16457.1 -16401.3 -16295.4 -16083.5 -16030.2 -15923.5 -15803.1 -15562.1 -15397.5 -15068.3 -14880 -14503.5
-3225.48 -3404.82 -3602.28 -3997.21 -4219.95 -4665.45 -4908.04 -5393.22 -5647.28 -6155.39 -6421.25 -6952.96 -7270.98 -7907.04 -8267.01 -8986.96 -9312.9 -9964.78 -10307.1 -10991.6 -11383.8 -12168.3 -12515.2 -13209.2 -13530 -14171.5 -14423.8 -14928.4 -15164.2 -15635.8 -15812.6 -16166.3 -16204.7 -16281.6 -16349.4 -16484.9 -16457.1 -16401.3 -16295.4 -16083.5 -16030.2 -15923.5 -15803.1 -15562.1 -15397.5 -15068.3 -14880 -14503.5 -14288.3 -13857.9
-3799.74 -3997.21 -4219.95 -4665.45 -4908.04 -5393.22 -5647.28 -6155.39 -6421.25 -6952.96 -7270.98 -7907.04 -8267.01 -8986.96 -9312.9 -9964.78 -10307.1 -10991.6 -11383.8 -12168.3 -12515.2 -13209.2 -13530 -14171.5 -14423.8 -14928.4 -15164.2 -15635.8 -15812.6 -16166.3 -16204.7 -16281.6 -16349.4 -16484.9 -16457.1 -16401.3 -16295.4 -16083.5 -16030.2 -15923.5 -15803.1 -15562.1 -15397.5 -15068.3 -14880 -14503.5 -14288.3 -13857.9 -13715.5 -13430.7
-4442.7 -4665.45 -4908.04 -5393.22 -5647.28 -6155.39 -6421.25 -6952.96 -7270.98 -7907.04 -8267.01 -8986.96 -9312.9 -9964.78 -10307.1 -10991.6 -11383.8 -12168.3 -12515.2 -13209.2 -13530 -14171.5 -14423.8 -14928.4 -15164.2 -15635.8 -15812.6 -16166.3 -16204.7 -16281.6 -16349.4 -16484.9 -16457.1 -16401.3 -16295.4 -16083.5 -16030.2 -15923.5 -15803.1 -15562.1 -15397.5 -15068.3 -14880 -14503.5 -14288.3 -13857.9 -13715.5 -13430.7 -13296.5 -13028.2
-5150.63 -5393.22 -5647.28 -6155.39 -6421.25 -6952.96 -7270.98 -7907.04 -8267.01 -8986.96 -9312.9 -9964.78 -10307.1 -10991.6 -11383.8 -12168.3 -12515.2 -13209.2 -13530 -14171.5 -14423.8 -14928.4 -15164.2 -15635.8 -15812.6 -16166.3 -16204.7 -16281.6 -16349.4 -16484.9 -16457.1 -16401.3 -16295.4 -16083.5 -16030.2 -15923.5 -15803.1 -15562.1 -15397.5 -15068.3 -14880 -14503.5 -14288.3 -13857.9 -13715.5 -13430.7 -13296.5 -13028.2 -12840.2 -12464.1
-5901.34 -6155.39 -6421.25 -6952.96 -7270.98 -7907.04 -8267.01 -8986.96 -9312.9 -9964.78 -10307.1 -10991.6 -11383.8 -12168.3 -12515.2 -13209.2 -13530 -14171.5 -14423.8 -14928.4 -15164.2 -15635.8 -15812.6 -16166.3 -16204.7 -16281.6 -16349.4 -16484.9 -16457.1 -16401.3 -16295.4 -16083.5 -16030.2 -15923.5 -15803.1 -15562.1 -15397.5 -15068.3 -14880 -14503.5 -14288.3 -13857.9 -13715.5 -13430.7 -13296.5 -13028.2 -12840.2 -12464.1 -12255.5 -11838.2
-6687.1 -6952.96 -7270.98 -7907.04 -8267.01 -8986.96 -9312.9 -9964.78 -10307.1 -10991.6 -11383.8 -12168.3 -12515.2 -13209.2 -13530 -14171.5 -14423.8 -14928.4 -15164.2 -15635.8 -15812.6 -16166.3 -16204.7 -16281.6 -16349.4 -16484.9 -16457.1 -16401.3 -16295.4 -16083.5 -16030.2 -15923.5 -15803.1 -15562.1 -15397.5 -15068.3 -14880 -14503.5 -14288.3 -13857.9 -13715.5 -13430.7 -13296.5 -13028.2 -12840.2 -12464.1 -12255.5 -11838.2 -11656.2 -11292.1
-7589.01 -7907.04 -8267.01 -8986.96 -9312.9 -9964.78 -10307.1 -10991.6 -11383.8 -12168.3 -12515.2 -13209.2 -13530 -14171.5 -14423.8 -14928.4 -15164.2 -15635.8 -15812.6 -16166.3 -16204.7 -16281.6 -16349.4 -16484.9 -16457.1 -16401.3 -16295.4 -16083.5 -16030.2 -15923.5 -15803.1 -15562.1 -15397.5 -15068.3 -14880 -14503.5 -14288.3 -13857.9 -13715.5 -13430.7 -13296.5 -13028.2 -12840.2 -12464.1 -12255.5 -11838.2 -11656.2 -11292.1 -11138.3 -10830.6
-8626.98 -8986.96 -9312.9 -9964.78 -10307.1 -10991.6 -11383.8 -12168.3 -12515.2 -13209.2 -13530 -14171.5 -14423.8 -14928.4 -15164.2 -15635.8 -15812.6 -16166.3 -16204.7 -16281.6 -16349.4 -16484.9 -16457.1 -16401.3 -16295.4 -16083.5 -16030.2 -15923.5 -15803.1 -15562.1 -15397.5 -15068.3 -14880 -14503.5 -14288.3 -13857.9 -13715.5 -13430.7 -13296.5 -13028.2 -12840.2 -12464.1 -12255.5 -11838.2 -11656.2 -11292.1 -11138.3 -10830.6 -10666.6 -10338.7
-9638.84 -9964.78 -10307.1 -10991.6 -11383.8 -12168.3 -12515.2 -13209.2 -13530 -14171.5 -14423.8 -14928.4 -15164.2 -15635.8 -15812.6 -16166.3 -16204.7 -16281.6 -16349.4 -16484.9 -16457.1 -16401.3 -16295.4 -16083.5 -16030.2 -15923.5 -15803.1 -15562.1 -15397.5 -15068.3 -14880 -14503.5 -14288.3 -13857.9 -13715.5 -13430.7 -13296.5 -13028.2 -12840.2 -12464.1 -12255.5 -11838.2 -11656.2 -11292.1 -11138.3 -10830.6 -10666.6 -10338.7 -10176.2 -9851.11
-10649.3 -10991.6 -11383.8 -12168.3 -12515.2 -13209.2 -13530 -14171.5 -14423.8 -14928.4 -15164.2 -15635.8 -15812.6 -16166.3 -16204.7 -16281.6 -16349.4 -16484.9 -16457.1 -16401.3 -16295.4 -16083.5 -16030.2 -15923.5 -15803.1 -15562.1 -15397.5 -15068.3 -14880 -14503.5 -14288.3 -13857.9 -13715.5 -13430.7 -13296.5 -13028.2 -12840.2 -12464.1 -12255.5 -11838.2 -11656.2 -11292.1 -11138.3 -10830.6 -10666.6 -10338.7 -10176.2 -9851.11 -9696.52 -9387.36
-11776 -12168.3 -12515.2 -13209.2 -13530 -14171.5 -14423.8 -14928.4 -15164.2 -15635.8 -15812.6 -16166.3 -16204.7 -16281.6 -16349.4 -16484.9 -16457.1 -16401.3 -16295.4 -16083.5 -16030.2 -15923.5 -15803.1 -15562.1 -15397.5 -15068.3 -14880 -14503.5 -14288.3 -13857.9 -13715.5 -13430.7 -13296.5 -13028.2 -12840.2 -12464.1 -12255.5 -11838.2 -11656.2 -11292.1 -11138.3 -10830.6 -10666.6 -10338.7 -10176.2 -9851.11 -9696.52 -9387.36 -9233.53 -8925.88
-12862.2 -13209.2 -13530 -14171.5 -14423.8 -14928.4 -15164.2 -15635.8 -15812.6 -16166.3 -16204.7 -16281.6 -16349.4 -16484.9 -16457.1 -16401.3 -16295.4 -16083.5 -16030.2 -15923.5 -15803.1 -15562.1 -15397.5 -15068.3 -14880 -14503.5 -14288.3 -13857.9 -13715.5 -13430.7 -13296.5 -13028.2 -12840.2 -12464.1 -12255.5 -11838.2 -11656.2 -11292.1 -11138.3 -10830.6 -10666.6 -10338.7 -10176.2 -9851.11 -9696.52 -9387.36 -9233.53 -8925.88 -8783.02 -8497.29
-13850.8 -14171.5 -14423.8 -14928.4 -15164.2 -15635.8 -15812.6 -16166.3 -16204.7 -16281.6 -16349.4 -16484.9 -16457.1 -16401.3 -16295.4 -16083.5 -16030.2 -15923.5 -15803.1 -15562.1 -15397.5 -15068.3 -14880 -14503.5 -14288.3 -13857.9 -13715.5 -13430.7 -13296.5 -13028.2 -12840.2 -12464.1 -12255.5 -11838.2 -11656.2 -11292.1 -11138.3 -10830.6 -10666.6 -10338.7 -10176.2 -9851.11 -9696.52 -9387.36 -9233.53 -8925.88 -8783.02 -8497.29 -8356.22 -8074.09
-14676.1 -14928.4 -15164.2 -15635.8 -15812.6 -16166.3 -16204.7 -16281.6 -16349.4 -16484.9 -16457.1 -16401.3 -16295.4 -16083.5 -16030.2 -15923.5 -15803.1 -15562.1 -15397.5 -15068.3 -14880 -14503.5 -14288.3 -13857.9 -13715.5 -13430.7 -13296.5 -13028.2 -12840.2 -12464.1 -12255.5 -11838.2 -11656.2 -11292.1 -11138.3 -10830.6 -10666.6 -10338.7 -10176.2 -9851.11 -9696.52 -9387.36 -9233.53 -8925.88 -8783.02 -8497.29 -8356.22 -8074.09 -7932.23 -7648.51
-15400 -15635.8 -15812.6 -16166.3 -16204.7 -16281.6 -16349.4 -16484.9 -16457.1 -16401.3 -16295.4 -16083.5 -16030.2 -15923.5 -15803.1 -15562.1 -15397.5 -15068.3 -14880 -14503.5 -14288.3 -13857.9 -13715.5 -13430.7 -13296.5 -13028.2 -12840.2 -12464.1 -12255.5 -11838.2 -11656.2 -11292.1 -11138.3 -10830.6 -10666.6 -10338.7 -10176.2 -9851.11 -9696.52 -9387.36 -9233.53 -8925.88 -8783.02 -8497.29 -8356.22 -8074.09 -7932.23 -7648.51 -7527.23 -7284.67
-15989.5 -16166.3 -16204.7 -16281.6 -16349.4 -16484.9 -16457.1 -16401.3 -16295.4 -16083.5 -16030.2 -15923.5 -15803.1 -15562.1 -15397.5 -15068.3 -14880 -14503.5 -14288.3 -13857.9 -13715.5 -13430.7 -13296.5 -13028.2 -12840.2 -12464.1 -12255.5 -11838.2 -11656.2 -11292.1 -11138.3 -10830.6 -10666.6 -10338.7 -10176.2 -9851.11 -9696.52 -9387.36 -9233.53 -8925.88 -8783.02 -8497.29 -8356.22 -8074.09 -7932.23 -7648.51 -7527.23 -7284.67 -7160.15 -6911.12
-16243.1 -16281.6 -16349.4 -16484.9 -16457.1 -16401.3 -16295.4 -16083.5 -16030.2 -15923.5 -15803.1 -15562.1 -15397.5 -15068.3 -14880 -14503.5 -14288.3 -13857.9 -13715.5 -13430.7 -13296.5 -13028.2 -12840.2 -12464.1 -12255.5 -11838.2 -11656.2 -11292.1 -11138.3 -10830.6 -10666.6 -10338.7 -10176.2 -9851.11 -9696.52 -9387.36 -9233.53 -8925.88 -8783.02 -8497.29 -8356.22 -8074.09 -7932.23 -7648.51 -7527.23 -7284.67 -7160.15 -6911.12 -6783.61 -6528.59
-16417.1 -16484.9 -16457.1 -16401.3 -16295.4 -16083.5 -16030.2 -15923.5 -15803.1 -15562.1 -15397.5 -15068.3 -14880 -14503.5 -14288.3 -13857.9 -13715.5 -13430.7 -13296.5 -13028.2 -12840.2 -12464.1 -12255.5 -11838.2 -11656.2 -11292.1 -11138.3 -10830.6 -10666.6 -10338.7 -10176.2 -9851.11 -9696.52 -9387.36 -9233.53 -8925.88 -8783.02 -8497.29 -8356.22 -8074.09 -7932.23 -7648.51 -7527.23 -7284.67 -7160.15 -6911.12 -6783.61 -6528.59 -6409.82 -6172.26
-16429.2 -16401.3 -16295.4 -16083.5 -16030.2 -15923.5 -15803.1 -15562.1 -15397.5 -15068.3 -14880 -14503.5 -14288.3 -13857.9 -13715.5 -13430.7 -13296.5 -13028.2 -12840.2 -12464.1 -12255.5 -11838.2 -11656.2 -11292.1 -11138.3 -10830.6 -10666.6 -10338.7 -10176.2 -9851.11 -9696.52 -9387.36 -9233.53 -8925.88 -8783.02 -8497.29 -8356.22 -8074.09 -7932.23 -7648.51 -7527.23 -7284.67 -7160.15 -6911.12 -6783.61 -6528.59 -6409.82 -6172.26 -6044.07 -5787.69
-16189.5 -16083.5 -16030.2 -15923.5 -15803.1 -15562.1 -15397.5 -15068.3 -14880 -14503.5 -14288.3 -13857.9 -13715.5 -13430.7 -13296.5 -13028.2 -12840.2 -12464.1 -12255.5 -11838.2 -11656.2 -11292.1 -11138.3 -10830.6 -10666.6 -10338.7 -10176.2 -9851.11 -9696.52 -9387.36 -9233.53 -8925.88 -8783.02 -8497.29 -8356.22 -8074.09 -7932.23 -7648.51 -7527.23 -7284.67 -7160.15 -6911.12 -6783.61 -6528.59 -6409.82 -6172.26 -6044.07 -5787.69 -5658.29 -5399.47
-15976.9 -15923.5 -15803.1 -15562.1 -15397.5 -15068.3 -14880 -14503.5 -14288.3 -13857.9 -13715.5 -13430.7 -13296.5 -13028.2 -12840.2 -12464.1 -12255.5 -11838.2 -11656.2 -11292.1 -11138.3 -10830.6 -10666.6 -10338.7 -10176.2 -9851.11 -9696.52 -9387.36 -9233.53 -8925.88 -8783.02 -8497.29 -8356.22 -8074.09 -7932.23 -7648.51 -7527.23 -7284.67 -7160.15 -6911.12 -6783.61 -6528.59 -6409.82 -6172.26 -6044.07 -5787.69 -5658.29 -5399.47 -5290.43 -5072.35
-15803.1 -15682.6 -15562.1 -15232.9 -15068.3 -14691.8 -14503.5 -14073.1 -13857.9 -13573.1 -13430.7 -13162.4 -13028.2 -12652.1 -12464.1 -12046.9 -11838.2 -11474.2 -11292.1 -10984.4 -10830.6 -10502.7 -10338.7 -10013.6 -9851.11 -9541.94 -9387.36 -9079.71 -8925.88 -8640.15 -8497.29 -8215.16 -8074.09 -7790.37 -7648.51 -7405.95 -7284.67 -7035.64 -6911.12 -6656.1 -6528.59 -6291.04 -6172.26 -5915.88 -5787.69 -5528.88 -5399.47 -5181.39 -5072.35 -4908.56 -4826.67
-15397.5 -15232.9 -15068.3 -14691.8 -14503.5 -14073.1 -13857.9 -13573.1 -13430.7 -13162.4 -13028.2 -12652.1 -12464.1 -12046.9 -11838.2 -11474.2 -11292.1 -10984.4 -10830.6 -10502.7 -10338.7 -10013.6 -9851.11 -9541.94 -9387.36 -9079.71 -8925.88 -8640.15 -8497.29 -8215.16 -8074.09 -7790.37 -7648.51 -7405.95 -7284.67 -7035.64 -6911.12 -6656.1 -6528.59 -6291.04 -6172.26 -5915.88 -5787.69 -5528.88 -5399.47 -5181.39 -5072.35 -4908.56 -4826.67 -4734.77 -4688.82
-14880 -14691.8 -14503.5 -14073.1 -13857.9 -13573.1 -13430.7 -13162.4 -13028.2 -12652.1 -12464.1 -12046.9 -11838.2 -11474.2 -11292.1 -10984.4 -10830.6 -10502.7 -10338.7 -10013.6 -9851.11 -9541.94 -9387.36 -9079.71 -8925.88 -8640.15 -8497.29 -8215.16 -8074.09 -7790.37 -7648.51 -7405.95 -7284.67 -7035.64 -6911.12 -6656.1 -6528.59 -6291.04 -6172.26 -5915.88 -5787.69 -5528.88 -5399.47 -5181.39 -5072.35 -4908.56 -4826.67 -4734.77 -4688.82 -4645.34 -4623.6
-14288.3 -14073.1 -13857.9 -13573.1 -13430.7 -13162.4 -13028.2 -12652.1 -12464.1 -12046.9 -11838.2 -11474.2 -11292.1 -10984.4 -10830.6 -10502.7 -10338.7 -10013.6 -9851.11 -9541.94 -9387.36 -9079.71 -8925.88 -8640.15 -8497.29 -8215.16 -8074.09 -7790.37 -7648.51 -7405.95 -7284.67 -7035.64 -6911.12 -6656.1 -6528.59 -6291.04 -6172.26 -5915.88 -5787.69 -5528.88 -5399.47 -5181.39 -5072.35 -4908.56 -4826.67 -4734.77 -4688.82 -4645.34 -4623.6 -4587.01 -4568.71
-13715.5 -13573.1 -13430.7 -13162.4 -13028.2 -12652.1 -12464.1 -12046.9 -11838.2 -11474.2 -11292.1 -10984.4 -10830.6 -10502.7 -10338.7 -10013.6 -9851.11 -9541.94 -9387.36 -9079.71 -8925.88 -8640.15 -8497.29 -8215.16 -8074.09 -7790.37 -7648.51 -7405.95 -7284.67 -7035.64 -6911.12 -6656.1 -6528.59 -6291.04 -6172.26 -5915.88 -5787.69 -5528.88 -5399.47 -5181.39 -5072.35 -4908.56 -4826.67 -4734.77 -4688.82 -4645.34 -4623.6 -4587.01 -4568.71 -4532.13 -4513.83
-13296.5 -13162.4 -13028.2 -12652.1 -12464.1 -12046.9 -11838.2 -11474.2 -11292.1 -10984.4 -10830.6 -10502.7 -10338.7 -10013.6 -9851.11 -9541.94 -9387.36 -9079.71 -8925.88 -8640.15 -8497.29 -8215.16 -8074.09 -7790.37 -7648.51 -7405.95 -7284.67 -7035.64 -6911.12 -6656.1 -6528.59 -6291.04 -6172.26 -5915.88 -5787.69 -5528.88 -5399.47 -5181.39 -5072.35 -4908.56 -4826.67 -4734.77 -4688.82 -4645.34 -4623.6 -4587.01 -4568.71 -4532.13 -4513.83 -4475.46 -4456.27
-12840.2 -12652.1 -12464.1 -12046.9 -11838.2 -11474.2 -11292.1 -10984.4 -10830.6 -10502.7 -10338.7 -10013.6 -9851.11 -9541.94 -9387.36 -9079.71 -8925.88 -8640.15 -8497.29 -8215.16 -8074.09 -7790.37 -7648.51 -7405.95 -7284.67 -7035.64 -6911.12 -6656.1 -6528.59 -6291.04 -6172.26 -5915.88 -5787.69 -5528.88 -5399.47 -5181.39 -5072.35 -4908.56 -4826.67 -4734.77 -4688.82 -4645.34 -4623.6 -4587.01 -4568.71 -4532.13 -4513.83 -4475.46 -4456.27
-12255.5 -12046.9 -11838.2 -11474.2 -11292.1 -10984.4 -10830.6 -10502.7 -10338.7 -10013.6 -9851.11 -9541.94 -9387.36 -9079.71 -8925.88 -8640.15 -8497.29 -8215.16 -8074.09 -7790.37 -7648.51 -7405.95 -7284.67 -7035.64 -6911.12 -6656.1 -6528.59 -6291.04 -6172.26 -5915.88 -5787.69 -5528.88 -5399.47 -5181.39 -5072.35 -4908.56 -4826.67 -4734.77 -4688.82 -4645.34 -4623.6 -4587.01 -4568.71 -4532.13 -4513.83 -4475.46 -4456.27
-11656.2 -11474.2 -11292.1 -10984.4 -10830.6 -10502.7 -10338.7 -10013.6 -9851.11 -9541.94 -9387.36 -9079.71 -8925.88 -8640.15 -8497.29 -8215.16 -8074.09 -7790.37 -7648.51 -7405.95 -7284.67 -7035.64 -6911.12 -6656.1 -6528.59 -6291.04 -6172.26 -5915.88 -5787.69 -5528.88 -5399.47 -5181.39 -5072.35 -4908.56 -4826.67 -4734.77 -4688.82 -4645.34 -4623.6 -4587.01 -4568.71 -4532.13 -4513.83 -4475.46 -4456.27
-11138.3 -10984.4 -10830.6 -10502.7 -10338.7 -10013.6 -9851.11 -9541.94 -9387.36 -9079.71 -8925.88 -8640.15 -8497.29 -8215.16 -8074.09 -7790.37 -7648.51 -7405.95 -7284.67 -7035.64 -6911.12 -6656.1 -6528.59 -6291.04 -6172.26 -5915.88 -5787.69 -5528.88 -5399.47 -5181.39 -5072.35 -4908.56 -4826.67 -4734.77 -4688.82 -4645.34 -4623.6 -4587.01 -4568.71 -4532.13 -4513.83 -4475.46 -4456.27
-10666.6 -10502.7 -10338.7 -10013.6 -9851.11 -9541.94 -9387.36 -9079.71 -8925.88 -8640.15 -8497.29 -8215.16 -8074.09 -7790.37 -7648.51 -7405.95 -7284.67 -7035.64 -6911.12 -6656.1 -6528.59 -6291.04 -6172.26 -5915.88 -5787.69 -5528.88 -5399.47 -5181.39 -5072.35 -4908.56 -4826.67 -4734.77 -4688.82 -4645.34 -4623.6 -4587.01 -4568.71 -4532.13 -4513.83 -4475.46 -4456.27
-10176.2 -10013.6 -9851.11 -9541.94 -9387.36 -9079.71 -8925.88 -8640.15 -8497.29 -8215.16 -8074.09 -7790.37 -7648.51 -7405.95 -7284.67 -7035.64 -6911.12 -6656.1 -6528.59 -6291.04 -6172.26 -5915.88 -5787.69 -5528.88 -5399.47 -5181.39 -5072.35 -4908.56 -4826.67 -4734.77 -4688.82 -4645.34 -4623.6 -4587.01 -4568.71 -4532.13 -4513.83 -4475.46 -4456.27
-9696.52 -9541.94 -9387.36 -9079.71 -8925.88 -8640.15 -8497.29 -8215.16 -8074.09 -7790.37 -7648.51 -7405.95 -7284.67 -7035.64 -6911.12 -6656.1 -6528.59 -6291.04 -6172.26 -5915.88 -5787.69 -5528.88 -5399.47 -5181.39 -5072.35 -4908.56 -4826.67 -4734.77 -4688.82 -4645.34 -4623.6 -4587.01 -4568.71 -4532.13 -4513.83 -4475.46 -4456.27
-9233.53 -9079.71 -8925.88 -8640.15 -8497.29 -8215.16 -8074.09 -7790.37 -7648.51 -7405.95 -7284.67 -7035.64 -6911.12 -6656.1 -6528.59 -6291.04 -6172.26 -5915.88 -5787.69 -5528.88 -5399.47 -5181.39 -5072.35 -4908.56 -4826.67 -4734.77 -4688.82 -4645.34 -4623.6 -4587.01 -4568.71 -4532.13 -4513.83 -4475.46 -4456.27
-8783.02 -8640.15 -8497.29 -8215.16 -8074.09 -7790.37 -7648.51 -7405.95 -7284.67 -7035.64 -6911.12 -6656.1 -6528.59 -6291.04 -6172.26 -5915.88 -5787.69 -5528.88 -5399.47 -5181.39 -5072.35 -4908.56 -4826.67 -4734.77 -4688.82 -4645.34 -4623.6 -4587.01 -4568.71 -4532.13 -4513.83 -4475.46 -4456.27
-8356.22 -8215.16 -8074.09 -7790.37 -7648.51 -7405.95 -7284.67 -7035.64 -6911.12 -6656.1 -6528.59 -6291.04 -6172.26 -5915.88 -5787.69 -5528.88 -5399.47 -5181.39 -5072.35 -4908.56 -4826.67 -4734.77 -4688.82 -4645.34 -4623.6 -4587.01 -4568.71 -4532.13 -4513.83 -4475.46 -4456.27
-7932.23 -7790.37 -7648.51 -7405.95 -7284.67 -7035.64 -6911.12 -6656.1 -6528.59 -6291.04 -6172.26 -5915.88 -5787.69 -5528.88 -5399.47 -5181.39 -5072.35 -4908.56 -4826.67 -4734.77 -4688.82 -4645.34 -4623.6 -4587.01 -4568.71 -4532.13 -4513.83 -4475.46 -4456.27
-7527.23 -7405.95 -7284.67 -7035.64 -6911.12 -6656.1 -6528.59 -6291.04 -6172.26 -5915.88 -5787.69 -5528.88 -5399.47 -5181.39 -5072.35 -4908.56 -4826.67 -4734.77 -4688.82 -4645.34 -4623.6 -4587.01 -4568.71 -4532.13 -4513.83 -4475.46 -4456.27
-7160.15 -7035.64 -6911.12 -6656.1 -6528.59 -6291.04 -6172.26 -5915.88 -5787.69 -5528.88 -5399.47 -5181.39 -5072.35 -4908.56 -4826.67 -4734.77 -4688.82 -4645.34 -4623.6 -4587.01 -4568.71 -4532.13 -4513.83 -4475.46 -4456.27
-6783.61 -6656.1 -6528.59 -6291.04 -6172.26 -5915.88 -5787.69 -5528.88 -5399.47 -5181.39 -5072.35 -4908.56 -4826.67 -4734.77 -4688.82 -4645.34 -4623.6 -4587.01 -4568.71 -4532.13 -4513.83 -4475.46 -4456.27
-6409.82 -6291.04 -6172.26 -5915.88 -5787.69 -5528.88 -5399.47 -5181.39 -5072.35 -4908.56 -4826.67 -4734.77 -4688.82 -4645.34 -4623.6 -4587.01 -4568.71 -4532.13 -4513.83 -4475.46 -4456.27
-6044.07 -5915.88 -5787.69 -5528.88 -5399.47 -5181.39 -5072.35 -4908.56 -4826.67 -4734.77 -4688.82 -4645.34 -4623.6 -4587.01 -4568.71 -4532.13 -4513.83 -4475.46 -4456.27
-5658.29 -5528.88 -5399.47 -5181.39 -5072.35 -4908.56 -4826.67 -4734.77 -4688.82 -4645.34 -4623.6 -4587.01 -4568.71 -4532.13 -4513.83 -4475.46 -4456.27
-5290.43 -5181.39 -5072.35 -4908.56 -4826.67 -4734.77 -4688.82 -4645.34 -4623.6 -4587.01 -4568.71 -4532.13 -4513.83 -4475.46 -4456.27
-4990.45 -4908.56 -4826.67 -4734.77 -4688.82 -4645.34 -4623.6 -4587.01 -4568.71 -4532.13 -4513.83 -4475.46 -4456.27
-4780.72 -4734.77 -4688.82 -4645.34 -4623.6 -4587.01 -4568.71 -4532.13 -4513.83 -4475.46 -4456.27
-4667.08 -4645.34 -4623.6 -4587.01 -4568.71 -4532.13 -4513.83 -4475.46 -4456.27
-4605.31 -4587.01 -4568.71 -4532.13 -4513.83 -4475.46 -4456.27
-4550.42 -4532.13 -4513.83 -4475.46 -4456.27
-4494.65 -4475.46 -4456.27
-4435.81 -4415.35 -4456.27