# vtk DataFile Version 2.0
track0
ASCII
DATASET POLYDATA
POINTS 7672 float
0.0634193 -0.333333 -0.266338
0.0643872 -0.333333 -0.268059
0.065452 -0.333333 -0.269904
0.0675815 -0.333333 -0.273595
0.0687567 -0.333333 -0.275545
0.0711071 -0.333333 -0.279444
0.0724055 -0.333333 -0.281485
0.0750023 -0.333333 -0.285568
0.0764327 -0.333333 -0.287728
0.0792933 -0.333333 -0.292048
0.0808709 -0.333333 -0.29431
0.0840261 -0.333333 -0.298833
0.0857647 -0.333333 -0.301203
0.089242 -0.333333 -0.305944
0.0911575 -0.333333 -0.308422
0.0949885 -0.333333 -0.31338
0.0971013 -0.333333 -0.315937
0.101327 -0.333333 -0.321051
0.103655 -0.333333 -0.323685
0.108313 -0.333333 -0.328954
0.110879 -0.333333 -0.331656
0.116011 -0.333333 -0.33706
0.118834 -0.333333 -0.339876
0.124479 -0.333333 -0.34551
0.127592 -0.333333 -0.34832
0.133819 -0.333333 -0.353941
0.13725 -0.333333 -0.35673
0.144112 -0.333333 -0.362308
0.147887 -0.333333 -0.365139
0.155438 -0.333333 -0.370802
0.159597 -0.333333 -0.373566
0.167915 -0.333333 -0.379095
0.172496 -0.333333 -0.381718
0.181658 -0.333333 -0.386964
0.1867 -0.333333 -0.389493
0.196783 -0.333333 -0.394549
0.202124 -0.333333 -0.396725
0.212805 -0.333333 -0.401077
0.218145 -0.333333 -0.402968
0.228826 -0.333333 -0.40675
0.234171 -0.333333 -0.408169
0.24486 -0.333333 -0.411007
0.250205 -0.333333 -0.41213
0.260896 -0.333333 -0.414376
0.266242 -0.333333 -0.415219
0.276934 -0.333333 -0.416904
0.282281 -0.333333 -0.417364
0.292974 -0.333333 -0.418284
0.298321 -0.333333 -0.418549
0.309015 -0.333333 -0.419078
0.0665167 -0.333333 -0.27175
0.0675815 -0.333333 -0.273595
0.0687567 -0.333333 -0.275545
0.0711071 -0.333333 -0.279444
0.0724055 -0.333333 -0.281485
0.0750023 -0.333333 -0.285568
0.0764327 -0.333333 -0.287728
0.0792933 -0.333333 -0.292048
0.0808709 -0.333333 -0.29431
0.0840261 -0.333333 -0.298833
0.0857647 -0.333333 -0.301203
0.089242 -0.333333 -0.305944
0.0911575 -0.333333 -0.308422
0.0949885 -0.333333 -0.31338
0.0971013 -0.333333 -0.315937
0.101327 -0.333333 -0.321051
0.103655 -0.333333 -0.323685
0.108313 -0.333333 -0.328954
0.110879 -0.333333 -0.331656
0.116011 -0.333333 -0.33706
0.118834 -0.333333 -0.339876
0.124479 -0.333333 -0.34551
0.127592 -0.333333 -0.34832
0.133819 -0.333333 -0.353941
0.13725 -0.333333 -0.35673
0.144112 -0.333333 -0.362308
0.147887 -0.333333 -0.365139
0.155438 -0.333333 -0.370802
0.159597 -0.333333 -0.373566
0.167915 -0.333333 -0.379095
0.172496 -0.333333 -0.381718
0.181658 -0.333333 -0.386964
0.1867 -0.333333 -0.389493
0.196783 -0.333333 -0.394549
0.202124 -0.333333 -0.396725
0.212805 -0.333333 -0.401077
0.218145 -0.333333 -0.402968
0.228826 -0.333333 -0.40675
0.234171 -0.333333 -0.408169
0.24486 -0.333333 -0.411007
0.250205 -0.333333 -0.41213
0.260896 -0.333333 -0.414376
0.266242 -0.333333 -0.415219
0.276934 -0.333333 -0.416904
0.282281 -0.333333 -0.417364
0.292974 -0.333333 -0.418284
0.298321 -0.333333 -0.418549
0.309015 -0.333333 -0.419078
0.314361 -0.333333 -0.419083
0.325055 -0.333333 -0.419091
0.0699319 -0.333333 -0.277494
0.0711071 -0.333333 -0.279444
0.0724055 -0.333333 -0.281485
0.0750023 -0.333333 -0.285568
0.0764327 -0.333333 -0.287728
0.0792933 -0.333333 -0.292048
0.0808709 -0.333333 -0.29431
0.0840261 -0.333333 -0.298833
0.0857647 -0.333333 -0.301203
0.089242 -0.333333 -0.305944
0.0911575 -0.333333 -0.308422
0.0949885 -0.333333 -0.31338
0.0971013 -0.333333 -0.315937
0.101327 -0.333333 -0.321051
0.103655 -0.333333 -0.323685
0.108313 -0.333333 -0.328954
0.110879 -0.333333 -0.331656
0.116011 -0.333333 -0.33706
0.118834 -0.333333 -0.339876
0.124479 -0.333333 -0.34551
0.127592 -0.333333 -0.34832
0.133819 -0.333333 -0.353941
0.13725 -0.333333 -0.35673
0.144112 -0.333333 -0.362308
0.147887 -0.333333 -0.365139
0.155438 -0.333333 -0.370802
0.159597 -0.333333 -0.373566
0.167915 -0.333333 -0.379095
0.172496 -0.333333 -0.381718
0.181658 -0.333333 -0.386964
0.1867 -0.333333 -0.389493
0.196783 -0.333333 -0.394549
0.202124 -0.333333 -0.396725
0.212805 -0.333333 -0.401077
0.218145 -0.333333 -0.402968
0.228826 -0.333333 -0.40675
0.234171 -0.333333 -0.408169
0.24486 -0.333333 -0.411007
0.250205 -0.333333 -0.41213
0.260896 -0.333333 -0.414376
0.266242 -0.333333 -0.415219
0.276934 -0.333333 -0.416904
0.282281 -0.333333 -0.417364
0.292974 -0.333333 -0.418284
0.298321 -0.333333 -0.418549
0.309015 -0.333333 -0.419078
0.314361 -0.333333 -0.419083
0.325055 -0.333333 -0.419091
0.330401 -0.333333 -0.418804
0.341094 -0.333333 -0.41823
0.0737039 -0.333333 -0.283527
0.0750023 -0.333333 -0.285568
0.0764327 -0.333333 -0.287728
0.0792933 -0.333333 -0.292048
0.0808709 -0.333333 -0.29431
0.0840261 -0.333333 -0.298833
0.0857647 -0.333333 -0.301203
0.089242 -0.333333 -0.305944
0.0911575 -0.333333 -0.308422
0.0949885 -0.333333 -0.31338
0.0971013 -0.333333 -0.315937
0.101327 -0.333333 -0.321051
0.103655 -0.333333 -0.323685
0.108313 -0.333333 -0.328954
0.110879 -0.333333 -0.331656
0.116011 -0.333333 -0.33706
0.118834 -0.333333 -0.339876
0.124479 -0.333333 -0.34551
0.127592 -0.333333 -0.34832
0.133819 -0.333333 -0.353941
0.13725 -0.333333 -0.35673
0.144112 -0.333333 -0.362308
0.147887 -0.333333 -0.365139
0.155438 -0.333333 -0.370802
0.159597 -0.333333 -0.373566
0.167915 -0.333333 -0.379095
0.172496 -0.333333 -0.381718
0.181658 -0.333333 -0.386964
0.1867 -0.333333 -0.389493
0.196783 -0.333333 -0.394549
0.202124 -0.333333 -0.396725
0.212805 -0.333333 -0.401077
0.218145 -0.333333 -0.402968
0.228826 -0.333333 -0.40675
0.234171 -0.333333 -0.408169
0.24486 -0.333333 -0.411007
0.250205 -0.333333 -0.41213
0.260896 -0.333333 -0.414376
0.266242 -0.333333 -0.415219
0.276934 -0.333333 -0.416904
0.282281 -0.333333 -0.417364
0.292974 -0.333333 -0.418284
0.298321 -0.333333 -0.418549
0.309015 -0.333333 -0.419078
0.314361 -0.333333 -0.419083
0.325055 -0.333333 -0.419091
0.330401 -0.333333 -0.418804
0.341094 -0.333333 -0.41823
0.346439 -0.333333 -0.417748
0.357131 -0.333333 -0.416784
0.077863 -0.333333 -0.289888
0.0792933 -0.333333 -0.292048
0.0808709 -0.333333 -0.29431
0.0840261 -0.333333 -0.298833
0.0857647 -0.333333 -0.301203
0.089242 -0.333333 -0.305944
0.0911575 -0.333333 -0.308422
0.0949885 -0.333333 -0.31338
0.0971013 -0.333333 -0.315937
0.101327 -0.333333 -0.321051
0.103655 -0.333333 -0.323685
0.108313 -0.333333 -0.328954
0.110879 -0.333333 -0.331656
0.116011 -0.333333 -0.33706
0.118834 -0.333333 -0.339876
0.124479 -0.333333 -0.34551
0.127592 -0.333333 -0.34832
0.133819 -0.333333 -0.353941
0.13725 -0.333333 -0.35673
0.144112 -0.333333 -0.362308
0.147887 -0.333333 -0.365139
0.155438 -0.333333 -0.370802
0.159597 -0.333333 -0.373566
0.167915 -0.333333 -0.379095
0.172496 -0.333333 -0.381718
0.181658 -0.333333 -0.386964
0.1867 -0.333333 -0.389493
0.196783 -0.333333 -0.394549
0.202124 -0.333333 -0.396725
0.212805 -0.333333 -0.401077
0.218145 -0.333333 -0.402968
0.228826 -0.333333 -0.40675
0.234171 -0.333333 -0.408169
0.24486 -0.333333 -0.411007
0.250205 -0.333333 -0.41213
0.260896 -0.333333 -0.414376
0.266242 -0.333333 -0.415219
0.276934 -0.333333 -0.416904
0.282281 -0.333333 -0.417364
0.292974 -0.333333 -0.418284
0.298321 -0.333333 -0.418549
0.309015 -0.333333 -0.419078
0.314361 -0.333333 -0.419083
0.325055 -0.333333 -0.419091
0.330401 -0.333333 -0.418804
0.341094 -0.333333 -0.41823
0.346439 -0.333333 -0.417748
0.357131 -0.333333 -0.416784
0.362476 -0.333333 -0.416038
0.373165 -0.333333 -0.414546
0.0824485 -0.333333 -0.296571
0.0840261 -0.333333 -0.298833
0.0857647 -0.333333 -0.301203
0.089242 -0.333333 -0.305944
0.0911575 -0.333333 -0.308422
0.0949885 -0.333333 -0.31338
0.0971013 -0.333333 -0.315937
0.101327 -0.333333 -0.321051
0.103655 -0.333333 -0.323685
0.108313 -0.333333 -0.328954
0.110879 -0.333333 -0.331656
0.116011 -0.333333 -0.33706
0.118834 -0.333333 -0.339876
0.124479 -0.333333 -0.34551
0.127592 -0.333333 -0.34832
0.133819 -0.333333 -0.353941
0.13725 -0.333333 -0.35673
0.144112 -0.333333 -0.362308
0.147887 -0.333333 -0.365139
0.155438 -0.333333 -0.370802
0.159597 -0.333333 -0.373566
0.167915 -0.333333 -0.379095
0.172496 -0.333333 -0.381718
0.181658 -0.333333 -0.386964
0.1867 -0.333333 -0.389493
0.196783 -0.333333 -0.394549
0.202124 -0.333333 -0.396725
0.212805 -0.333333 -0.401077
0.218145 -0.333333 -0.402968
0.228826 -0.333333 -0.40675
0.234171 -0.333333 -0.408169
0.24486 -0.333333 -0.411007
0.250205 -0.333333 -0.41213
0.260896 -0.333333 -0.414376
0.266242 -0.333333 -0.415219
0.276934 -0.333333 -0.416904
0.282281 -0.333333 -0.417364
0.292974 -0.333333 -0.418284
0.298321 -0.333333 -0.418549
0.309015 -0.333333 -0.419078
0.314361 -0.333333 -0.419083
0.325055 -0.333333 -0.419091
0.330401 -0.333333 -0.418804
0.341094 -0.333333 -0.41823
0.346439 -0.333333 -0.417748
0.357131 -0.333333 -0.416784
0.362476 -0.333333 -0.416038
0.373165 -0.333333 -0.414546
0.378509 -0.333333 -0.413626
0.389197 -0.333333 -0.411787
0.0875033 -0.333333 -0.303573
0.089242 -0.333333 -0.305944
0.0911575 -0.333333 -0.308422
0.0949885 -0.333333 -0.31338
0.0971013 -0.333333 -0.315937
0.101327 -0.333333 -0.321051
0.103655 -0.333333 -0.323685
0.108313 -0.333333 -0.328954
0.110879 -0.333333 -0.331656
0.116011 -0.333333 -0.33706
0.118834 -0.333333 -0.339876
0.124479 -0.333333 -0.34551
0.127592 -0.333333 -0.34832
0.133819 -0.333333 -0.353941
0.13725 -0.333333 -0.35673
0.144112 -0.333333 -0.362308
0.147887 -0.333333 -0.365139
0.155438 -0.333333 -0.370802
0.159597 -0.333333 -0.373566
0.167915 -0.333333 -0.379095
0.172496 -0.333333 -0.381718
0.181658 -0.333333 -0.386964
0.1867 -0.333333 -0.389493
0.196783 -0.333333 -0.394549
0.202124 -0.333333 -0.396725
0.212805 -0.333333 -0.401077
0.218145 -0.333333 -0.402968
0.228826 -0.333333 -0.40675
0.234171 -0.333333 -0.408169
0.24486 -0.333333 -0.411007
0.250205 -0.333333 -0.41213
0.260896 -0.333333 -0.414376
0.266242 -0.333333 -0.415219
0.276934 -0.333333 -0.416904
0.282281 -0.333333 -0.417364
0.292974 -0.333333 -0.418284
0.298321 -0.333333 -0.418549
0.309015 -0.333333 -0.419078
0.314361 -0.333333 -0.419083
0.325055 -0.333333 -0.419091
0.330401 -0.333333 -0.418804
0.341094 -0.333333 -0.41823
[...]
POINT_DATA 7672
 FIELD attributes 2
U 3 7672 float
-9.19832e-13 	0 	1.32569e-12 0 	0 	0 1.61892e-13 	0 	-2.27973e-13 0 	0 	0 0 	0 	0 0 	0 	0 1.36001e-13 	-5.41833e-33 	-1.79301e-13 0 	0 	0 -4.79218e-14 	0 	6.10919e-14 0 	0 	0 -1.35597e-13 	-1.14525e-32 	1.66303e-13 0 	0 	0 -1.26086e-13 	0 	1.48374e-13 0 	0 	0 1.92062e-14 	-1.80578e-33 	-2.15881e-14 0 	0 	0 -3.28648e-13 	3.13481e-32 	3.50627e-13 0 	0 	0 -1.09663e-13 	1.04291e-32 	1.1084e-13 0 	0 	0 0 	0 	0 0 	0 	0 -2.74827e-13 	0 	2.47439e-13 0 	0 	0 3.50252e-13 	-6.39913e-32 	-2.91793e-13 0 	0 	0 -6.61879e-13 	1.96826e-33 	5.1016e-13 0 	0 	0 7.34115e-13 	-1.2495e-31 	-5.2331e-13 0 	0 	0 -3.27097e-14 	-5.4692e-33 	2.11751e-14 0 	0 	0 5.55331e-13 	0 	-3.23418e-13 0 	0 	0 -1.06063e-12 	-4.62597e-33 	5.50888e-13 0 	0 	0 1.52703e-13 	-1.64651e-33 	-6.97322e-14 0 	0 	0 7.12553e-13 	-1.04984e-31 	-2.84028e-13 0 	0 	0 -1.22135e-13 	0 	4.16922e-14 0 	0 	0 1.11215e-12 	0 	-3.23935e-13 0 	0 	0 9.48272e-13 	0 	-2.30204e-13 0 	0 	0 1.01653e-12 	3.83764e-32 	-1.99805e-13 0 	0 	0 -9.77046e-13 	1.82336e-32 	1.53401e-13 0 	0 	0
-1.7201e-13 	0 	2.42222e-13 0 	0 	0 0 	0 	0 0 	0 	0 1.36001e-13 	-5.41833e-33 	-1.79301e-13 0 	0 	0 -4.79218e-14 	0 	6.10919e-14 0 	0 	0 -1.35597e-13 	-1.14525e-32 	1.66303e-13 0 	0 	0 -1.26086e-13 	0 	1.48374e-13 0 	0 	0 1.92062e-14 	-1.80578e-33 	-2.15881e-14 0 	0 	0 -3.28648e-13 	3.13481e-32 	3.50627e-13 0 	0 	0 -1.09663e-13 	1.04291e-32 	1.1084e-13 0 	0 	0 0 	0 	0 0 	0 	0 -2.74827e-13 	0 	2.47439e-13 0 	0 	0 3.50252e-13 	-6.39913e-32 	-2.91793e-13 0 	0 	0 -6.61879e-13 	1.96826e-33 	5.1016e-13 0 	0 	0 7.34115e-13 	-1.2495e-31 	-5.2331e-13 0 	0 	0 -3.27097e-14 	-5.4692e-33 	2.11751e-14 0 	0 	0 5.55331e-13 	0 	-3.23418e-13 0 	0 	0 -1.06063e-12 	-4.62597e-33 	5.50888e-13 0 	0 	0 1.52703e-13 	-1.64651e-33 	-6.97322e-14 0 	0 	0 7.12553e-13 	-1.04984e-31 	-2.84028e-13 0 	0 	0 -1.22135e-13 	0 	4.16922e-14 0 	0 	0 1.11215e-12 	0 	-3.23935e-13 0 	0 	0 9.48272e-13 	0 	-2.30204e-13 0 	0 	0 1.01653e-12 	3.83764e-32 	-1.99805e-13 0 	0 	0 -9.77046e-13 	1.82336e-32 	1.53401e-13 0 	0 	0 8.0289e-17 	-8.91163e-38 	-9.25619e-18 0 	0 	0
0 	0 	0 0 	0 	0 1.36001e-13 	-5.41833e-33 	-1.79301e-13 0 	0 	0 -4.79218e-14 	0 	6.10919e-14 0 	0 	0 -1.35597e-13 	-1.14525e-32 	1.66303e-13 0 	0 	0 -1.26086e-13 	0 	1.48374e-13 0 	0 	0 1.92062e-14 	-1.80578e-33 	-2.15881e-14 0 	0 	0 -3.28648e-13 	3.13481e-32 	3.50627e-13 0 	0 	0 -1.09663e-13 	1.04291e-32 	1.1084e-13 0 	0 	0 0 	0 	0 0 	0 	0 -2.74827e-13 	0 	2.47439e-13 0 	0 	0 3.50252e-13 	-6.39913e-32 	-2.91793e-13 0 	0 	0 -6.61879e-13 	1.96826e-33 	5.1016e-13 0 	0 	0 7.34115e-13 	-1.2495e-31 	-5.2331e-13 0 	0 	0 -3.27097e-14 	-5.4692e-33 	2.11751e-14 0 	0 	0 5.55331e-13 	0 	-3.23418e-13 0 	0 	0 -1.06063e-12 	-4.62597e-33 	5.50888e-13 0 	0 	0 1.52703e-13 	-1.64651e-33 	-6.97322e-14 0 	0 	0 7.12553e-13 	-1.04984e-31 	-2.84028e-13 0 	0 	0 -1.22135e-13 	0 	4.16922e-14 0 	0 	0 1.11215e-12 	0 	-3.23935e-13 0 	0 	0 9.48272e-13 	0 	-2.30204e-13 0 	0 	0 1.01653e-12 	3.83764e-32 	-1.99805e-13 0 	0 	0 -9.77046e-13 	1.82336e-32 	1.53401e-13 0 	0 	0 8.0289e-17 	-8.91163e-38 	-9.25619e-18 0 	0 	0 8.55392e-13 	0 	-5.94965e-14 0 	0 	0
-7.48003e-13 	2.98008e-32 	9.86153e-13 0 	0 	0 -4.79218e-14 	0 	6.10919e-14 0 	0 	0 -1.35597e-13 	-1.14525e-32 	1.66303e-13 0 	0 	0 -1.26086e-13 	0 	1.48374e-13 0 	0 	0 1.92062e-14 	-1.80578e-33 	-2.15881e-14 0 	0 	0 -3.28648e-13 	3.13481e-32 	3.50627e-13 0 	0 	0 -1.09663e-13 	1.04291e-32 	1.1084e-13 0 	0 	0 0 	0 	0 0 	0 	0 -2.74827e-13 	0 	2.47439e-13 0 	0 	0 3.50252e-13 	-6.39913e-32 	-2.91793e-13 0 	0 	0 -6.61879e-13 	1.96826e-33 	5.1016e-13 0 	0 	0 7.34115e-13 	-1.2495e-31 	-5.2331e-13 0 	0 	0 -3.27097e-14 	-5.4692e-33 	2.11751e-14 0 	0 	0 5.55331e-13 	0 	-3.23418e-13 0 	0 	0 -1.06063e-12 	-4.62597e-33 	5.50888e-13 0 	0 	0 1.52703e-13 	-1.64651e-33 	-6.97322e-14 0 	0 	0 7.12553e-13 	-1.04984e-31 	-2.84028e-13 0 	0 	0 -1.22135e-13 	0 	4.16922e-14 0 	0 	0 1.11215e-12 	0 	-3.23935e-13 0 	0 	0 9.48272e-13 	0 	-2.30204e-13 0 	0 	0 1.01653e-12 	3.83764e-32 	-1.99805e-13 0 	0 	0 -9.77046e-13 	1.82336e-32 	1.53401e-13 0 	0 	0 8.0289e-17 	-8.91163e-38 	-9.25619e-18 0 	0 	0 8.55392e-13 	0 	-5.94965e-14 0 	0 	0 9.61923e-13 	-3.85046e-32 	-3.00017e-14 0 	0 	0
-3.51427e-13 	0 	4.48007e-13 0 	0 	0 -1.35597e-13 	-1.14525e-32 	1.66303e-13 0 	0 	0 -1.26086e-13 	0 	1.48374e-13 0 	0 	0 1.92062e-14 	-1.80578e-33 	-2.15881e-14 0 	0 	0 -3.28648e-13 	3.13481e-32 	3.50627e-13 0 	0 	0 -1.09663e-13 	1.04291e-32 	1.1084e-13 0 	0 	0 0 	0 	0 0 	0 	0 -2.74827e-13 	0 	2.47439e-13 0 	0 	0 3.50252e-13 	-6.39913e-32 	-2.91793e-13 0 	0 	0 -6.61879e-13 	1.96826e-33 	5.1016e-13 0 	0 	0 7.34115e-13 	-1.2495e-31 	-5.2331e-13 0 	0 	0 -3.27097e-14 	-5.4692e-33 	2.11751e-14 0 	0 	0 5.55331e-13 	0 	-3.23418e-13 0 	0 	0 -1.06063e-12 	-4.62597e-33 	5.50888e-13 0 	0 	0 1.52703e-13 	-1.64651e-33 	-6.97322e-14 0 	0 	0 7.12553e-13 	-1.04984e-31 	-2.84028e-13 0 	0 	0 -1.22135e-13 	0 	4.16922e-14 0 	0 	0 1.11215e-12 	0 	-3.23935e-13 0 	0 	0 9.48272e-13 	0 	-2.30204e-13 0 	0 	0 1.01653e-12 	3.83764e-32 	-1.99805e-13 0 	0 	0 -9.77046e-13 	1.82336e-32 	1.53401e-13 0 	0 	0 8.0289e-17 	-8.91163e-38 	-9.25619e-18 0 	0 	0 8.55392e-13 	0 	-5.94965e-14 0 	0 	0 9.61923e-13 	-3.85046e-32 	-3.00017e-14 0 	0 	0 -7.34006e-13 	5.2467e-32 	-7.85505e-15 0 	0 	0
1.35597e-13 	1.14525e-32 	-1.66303e-13 0 	0 	0 -1.26086e-13 	0 	1.48374e-13 0 	0 	0 1.92062e-14 	-1.80578e-33 	-2.15881e-14 0 	0 	0 -3.28648e-13 	3.13481e-32 	3.50627e-13 0 	0 	0 -1.09663e-13 	1.04291e-32 	1.1084e-13 0 	0 	0 0 	0 	0 0 	0 	0 -2.74827e-13 	0 	2.47439e-13 0 	0 	0 3.50252e-13 	-6.39913e-32 	-2.91793e-13 0 	0 	0 -6.61879e-13 	1.96826e-33 	5.1016e-13 0 	0 	0 7.34115e-13 	-1.2495e-31 	-5.2331e-13 0 	0 	0 -3.27097e-14 	-5.4692e-33 	2.11751e-14 0 	0 	0 5.55331e-13 	0 	-3.23418e-13 0 	0 	0 -1.06063e-12 	-4.62597e-33 	5.50888e-13 0 	0 	0 1.52703e-13 	-1.64651e-33 	-6.97322e-14 0 	0 	0 7.12553e-13 	-1.04984e-31 	-2.84028e-13 0 	0 	0 -1.22135e-13 	0 	4.16922e-14 0 	0 	0 1.11215e-12 	0 	-3.23935e-13 0 	0 	0 9.48272e-13 	0 	-2.30204e-13 0 	0 	0 1.01653e-12 	3.83764e-32 	-1.99805e-13 0 	0 	0 -9.77046e-13 	1.82336e-32 	1.53401e-13 0 	0 	0 8.0289e-17 	-8.91163e-38 	-9.25619e-18 0 	0 	0 8.55392e-13 	0 	-5.94965e-14 0 	0 	0 9.61923e-13 	-3.85046e-32 	-3.00017e-14 0 	0 	0 -7.34006e-13 	5.2467e-32 	-7.85505e-15 0 	0 	0 1.31101e-13 	-3.24351e-34 	6.51387e-15 0 	0 	0
5.49376e-13 	0 	-6.46488e-13 0 	0 	0 1.92062e-14 	-1.80578e-33 	-2.15881e-14 0 	0 	0 -3.28648e-13 	3.13481e-32 	3.50627e-13 0 	0 	0 -1.09663e-13 	1.04291e-32 	1.1084e-13 0 	0 	0 0 	0 	0 0 	0 	0 -2.74827e-13 	0 	2.47439e-13 0 	0 	0 3.50252e-13 	-6.39913e-32 	-2.91793e-13 0 	0 	0 -6.61879e-13 	1.96826e-33 	5.1016e-13 0 	0 	0 7.34115e-13 	-1.2495e-31 	-5.2331e-13 0 	0 	0 -3.27097e-14 	-5.4692e-33 	2.11751e-14 0 	0 	0 5.55331e-13 	0 	-3.23418e-13 0 	0 	0 -1.06063e-12 	-4.62597e-33 	5.50888e-13 0 	0 	0 1.52703e-13 	-1.64651e-33 	-6.97322e-14 0 	0 	0 7.12553e-13 	-1.04984e-31 	-2.84028e-13 0 	0 	0 -1.22135e-13 	0 	4.16922e-14 0 	0 	0 1.11215e-12 	0 	-3.23935e-13 0 	0 	0 9.48272e-13 	0 	-2.30204e-13 0 	0 	0 1.01653e-12 	3.83764e-32 	-1.99805e-13 0 	0 	0 -9.77046e-13 	1.82336e-32 	1.53401e-13 0 	0 	0 8.0289e-17 	-8.91163e-38 	-9.25619e-18 0 	0 	0 8.55392e-13 	0 	-5.94965e-14 0 	0 	0 9.61923e-13 	-3.85046e-32 	-3.00017e-14 0 	0 	0 -7.34006e-13 	5.2467e-32 	-7.85505e-15 0 	0 	0 1.31101e-13 	-3.24351e-34 	6.51387e-15 0 	0 	0 -9.50631e-13 	0 	-7.55241e-14 0 	0 	0
4.3214e-13 	-4.063e-32 	-4.85732e-13 0 	0 	0 -3.28648e-13 	3.13481e-32 	3.50627e-13 0 	0 	0 -1.09663e-13 	1.04291e-32 	1.1084e-13 0 	0 	0 0 	0 	0 0 	0 	0 -2.74827e-13 	0 	2.47439e-13 0 	0 	0 3.50252e-13 	-6.39913e-32 	-2.91793e-13 0 	0 	0 -6.61879e-13 	1.96826e-33 	5.1016e-13 0 	0 	0 7.34115e-13 	-1.2495e-31 	-5.2331e-13 0 	0 	0 -3.27097e-14 	-5.4692e-33 	2.11751e-14 0 	0 	0 5.55331e-13 	0 	-3.23418e-13 0 	0 	0 -1.06063e-12 	-4.62597e-33 	5.50888e-13 0 	0 	0 1.52703e-13 	-1.64651e-33 	-6.97322e-14 0 	0 	0 7.12553e-13 	-1.04984e-31 	-2.84028e-13 0 	0 	0 -1.22135e-13 	0 	4.16922e-14 0 	0 	0 1.11215e-12 	0 	-3.23935e-13 0 	0 	0 9.48272e-13 	0 	-2.30204e-13 0 	0 	0 1.01653e-12 	3.83764e-32 	-1.99805e-13 0 	0 	0 -9.77046e-13 	1.82336e-32 	1.53401e-13 0 	0 	0 8.0289e-17 	-8.91163e-38 	-9.25619e-18 0 	0 	0 8.55392e-13 	0 	-5.94965e-14 0 	0 	0 9.61923e-13 	-3.85046e-32 	-3.00017e-14 0 	0 	0 -7.34006e-13 	5.2467e-32 	-7.85505e-15 0 	0 	0 1.31101e-13 	-3.24351e-34 	6.51387e-15 0 	0 	0 -9.50631e-13 	0 	-7.55241e-14 0 	0 	0 1.78049e-14 	2.82398e-33 	1.99508e-15 0 	0 	0
-6.57295e-13 	6.26962e-32 	7.01253e-13 0 	0 	0 -1.09663e-13 	1.04291e-32 	1.1084e-13 0 	0 	0 0 	0 	0 0 	0 	0 -2.74827e-13 	0 	2.47439e-13 0 	0 	0 3.50252e-13 	-6.39913e-32 	-2.91793e-13 0 	0 	0 -6.61879e-13 	1.96826e-33 	5.1016e-13 0 	0 	0 7.34115e-13 	-1.2495e-31 	-5.2331e-13 0 	0 	0 -3.27097e-14 	-5.4692e-33 	2.11751e-14 0 	0 	0 5.55331e-13 	0 	-3.23418e-13 0 	0 	0 -1.06063e-12 	-4.62597e-33 	5.50888e-13 0 	0 	0 1.52703e-13 	-1.64651e-33 	-6.97322e-14 0 	0 	0 7.12553e-13 	-1.04984e-31 	-2.84028e-13 0 	0 	0 -1.22135e-13 	0 	4.16922e-14 0 	0 	0 1.11215e-12 	0 	-3.23935e-13 0 	0 	0 9.48272e-13 	0 	-2.30204e-13 0 	0 	0 1.01653e-12 	3.83764e-32 	-1.99805e-13 0 	0 	0 -9.77046e-13 	1.82336e-32 	1.53401e-13 0 	0 	0 8.0289e-17 	-8.91163e-38 	-9.25619e-18 0 	0 	0 8.55392e-13 	0 	-5.94965e-14 0 	0 	0 9.61923e-13 	-3.85046e-32 	-3.00017e-14 0 	0 	0 -7.34006e-13 	5.2467e-32 	-7.85505e-15 0 	0 	0 1.31101e-13 	-3.24351e-34 	6.51387e-15 0 	0 	0 -9.50631e-13 	0 	-7.55241e-14 0 	0 	0 1.78049e-14 	2.82398e-33 	1.99508e-15 0 	0 	0 1.72044e-14 	0 	2.51625e-15 0 	0 	0
1.53529e-13 	-1.46007e-32 	-1.55176e-13 0 	0 	0 0 	0 	0 0 	0 	0 -2.74827e-13 	0 	2.47439e-13 0 	0 	0 3.50252e-13 	-6.39913e-32 	-2.91793e-13 0 	0 	0 -6.61879e-13 	1.96826e-33 	5.1016e-13 0 	0 	0 7.34115e-13 	-1.2495e-31 	-5.2331e-13 0 	0 	0 -3.27097e-14 	-5.4692e-33 	2.11751e-14 0 	0 	0 5.55331e-13 	0 	-3.23418e-13 0 	0 	0 -1.06063e-12 	-4.62597e-33 	5.50888e-13 0 	0 	0 1.52703e-13 	-1.64651e-33 	-6.97322e-14 0 	0 	0 7.12553e-13 	-1.04984e-31 	-2.84028e-13 0 	0 	0 -1.22135e-13 	0 	4.16922e-14 0 	0 	0 1.11215e-12 	0 	-3.23935e-13 0 	0 	0 9.48272e-13 	0 	-2.30204e-13 0 	0 	0 1.01653e-12 	3.83764e-32 	-1.99805e-13 0 	0 	0 -9.77046e-13 	1.82336e-32 	1.53401e-13 0 	0 	0 8.0289e-17 	-8.91163e-38 	-9.25619e-18 0 	0 	0 8.55392e-13 	0 	-5.94965e-14 0 	0 	0 9.61923e-13 	-3.85046e-32 	-3.00017e-14 0 	0 	0 -7.34006e-13 	5.2467e-32 	-7.85505e-15 0 	0 	0 1.31101e-13 	-3.24351e-34 	6.51387e-15 0 	0 	0 -9.50631e-13 	0 	-7.55241e-14 0 	0 	0 1.78049e-14 	2.82398e-33 	1.99508e-15 0 	0 	0 1.72044e-14 	0 	2.51625e-15 0 	0 	0 -1.65337e-14 	0 	-2.97669e-15 0 	0 	0
-4.32332e-13 	-5.97492e-34 	4.13339e-13 0 	0 	0 -2.74827e-13 	0 	2.47439e-13 0 	0 	0 3.50252e-13 	-6.39913e-32 	-2.91793e-13 0 	0 	0 -6.61879e-13 	1.96826e-33 	5.1016e-13 0 	0 	0 7.34115e-13 	-1.2495e-31 	-5.2331e-13 0 	0 	0 -3.27097e-14 	-5.4692e-33 	2.11751e-14 0 	0 	0 5.55331e-13 	0 	-3.23418e-13 0 	0 	0 -1.06063e-12 	-4.62597e-33 	5.50888e-13 0 	0 	0 1.52703e-13 	-1.64651e-33 	-6.97322e-14 0 	0 	0 7.12553e-13 	-1.04984e-31 	-2.84028e-13 0 	0 	0 -1.22135e-13 	0 	4.16922e-14 0 	0 	0 1.11215e-12 	0 	-3.23935e-13 0 	0 	0 9.48272e-13 	0 	-2.30204e-13 0 	0 	0 1.01653e-12 	3.83764e-32 	-1.99805e-13 0 	0 	0 -9.77046e-13 	1.82336e-32 	1.53401e-13 0 	0 	0 8.0289e-17 	-8.91163e-38 	-9.25619e-18 0 	0 	0 8.55392e-13 	0 	-5.94965e-14 0 	0 	0 9.61923e-13 	-3.85046e-32 	-3.00017e-14 0 	0 	0 -7.34006e-13 	5.2467e-32 	-7.85505e-15 0 	0 	0 1.31101e-13 	-3.24351e-34 	6.51387e-15 0 	0 	0 -9.50631e-13 	0 	-7.55241e-14 0 	0 	0 1.78049e-14 	2.82398e-33 	1.99508e-15 0 	0 	0 1.72044e-14 	0 	2.51625e-15 0 	0 	0 -1.65337e-14 	0 	-2.97669e-15 0 	0 	0 -2.22983e-13 	3.71486e-32 	-4.68643e-14 0 	0 	0
-1.01186e-12 	0 	9.11024e-13 -4.05237e-13 	1.49772e-34 	3.64222e-13 3.50252e-13 	-6.39913e-32 	-2.91793e-13 0 	0 	0 -6.61879e-13 	1.96826e-33 	5.1016e-13 0 	0 	0 7.34115e-13 	-1.2495e-31 	-5.2331e-13 0 	0 	0 -3.27097e-14 	-5.4692e-33 	2.11751e-14 0 	0 	0 5.55331e-13 	0 	-3.23418e-13 0 	0 	0 -1.06063e-12 	-4.62597e-33 	5.50888e-13 0 	0 	0 1.52703e-13 	-1.64651e-33 	-6.97322e-14 0 	0 	0 7.12553e-13 	-1.04984e-31 	-2.84028e-13 0 	0 	0 -1.22135e-13 	0 	4.16922e-14 0 	0 	0 1.11215e-12 	0 	-3.23935e-13 0 	0 	0 9.48272e-13 	0 	-2.30204e-13 0 	0 	0 1.01653e-12 	3.83764e-32 	-1.99805e-13 0 	0 	0 -9.77046e-13 	1.82336e-32 	1.53401e-13 0 	0 	0 8.0289e-17 	-8.91163e-38 	-9.25619e-18 0 	0 	0 8.55392e-13 	0 	-5.94965e-14 0 	0 	0 9.61923e-13 	-3.85046e-32 	-3.00017e-14 0 	0 	0 -7.34006e-13 	5.2467e-32 	-7.85505e-15 0 	0 	0 1.31101e-13 	-3.24351e-34 	6.51387e-15 0 	0 	0 -9.50631e-13 	0 	-7.55241e-14 0 	0 	0 1.78049e-14 	2.82398e-33 	1.99508e-15 0 	0 	0 1.72044e-14 	0 	2.51625e-15 0 	0 	0 -1.65337e-14 	0 	-2.97669e-15 0 	0 	0 -2.22983e-13 	3.71486e-32 	-4.68643e-14 0 	0 	0 4.45472e-13 	1.60798e-33 	1.06874e-13 0 	0 	0
1.93986e-12 	-3.54413e-31 	-1.61609e-12 0 	0 	0 -6.61879e-13 	1.96826e-33 	5.1016e-13 0 	0 	0 7.34115e-13 	-1.2495e-31 	-5.2331e-13 0 	0 	0 -3.27097e-14 	-5.4692e-33 	2.11751e-14 0 	0 	0 5.55331e-13 	0 	-3.23418e-13 0 	0 	0 -1.06063e-12 	-4.62597e-33 	5.50888e-13 0 	0 	0 1.52703e-13 	-1.64651e-33 	-6.97322e-14 0 	0 	0 7.12553e-13 	-1.04984e-31 	-2.84028e-13 0 	0 	0 -1.22135e-13 	0 	4.16922e-14 0 	0 	0 1.11215e-12 	0 	-3.23935e-13 0 	0 	0 9.48272e-13 	0 	-2.30204e-13 0 	0 	0 1.01653e-12 	3.83764e-32 	-1.99805e-13 0 	0 	0 -9.77046e-13 	1.82336e-32 	1.53401e-13 0 	0 	0 8.0289e-17 	-8.91163e-38 	-9.25619e-18 0 	0 	0 8.55392e-13 	0 	-5.94965e-14 0 	0 	0 9.61923e-13 	-3.85046e-32 	-3.00017e-14 0 	0 	0 -7.34006e-13 	5.2467e-32 	-7.85505e-15 0 	0 	0 1.31101e-13 	-3.24351e-34 	6.51387e-15 0 	0 	0 -9.50631e-13 	0 	-7.55241e-14 0 	0 	0 1.78049e-14 	2.82398e-33 	1.99508e-15 0 	0 	0 1.72044e-14 	0 	2.51625e-15 0 	0 	0 -1.65337e-14 	0 	-2.97669e-15 0 	0 	0 -2.22983e-13 	3.71486e-32 	-4.68643e-14 0 	0 	0 4.45472e-13 	1.60798e-33 	1.06874e-13 0 	0 	0 8.85751e-13 	2.43557e-33 	2.38941e-13 0 	0 	0
-1.33815e-12 	3.97932e-33 	1.03141e-12 -7.64876e-13 	5.97296e-33 	5.8795e-13 -5.81174e-13 	9.89185e-32 	4.14287e-13 0 	0 	0 -3.27097e-14 	-5.4692e-33 	2.11751e-14 0 	0 	0 5.55331e-13 	0 	-3.23418e-13 0 	0 	0 -1.06063e-12 	-4.62597e-33 	5.50888e-13 0 	0 	0 1.52703e-13 	-1.64651e-33 	-6.97322e-14 0 	0 	0 7.12553e-13 	-1.04984e-31 	-2.84028e-13 0 	0 	0 -1.22135e-13 	0 	4.16922e-14 0 	0 	0 1.11215e-12 	0 	-3.23935e-13 0 	0 	0 9.48272e-13 	0 	-2.30204e-13 0 	0 	0 1.01653e-12 	3.83764e-32 	-1.99805e-13 0 	0 	0 -9.77046e-13 	1.82336e-32 	1.53401e-13 0 	0 	0 8.0289e-17 	-8.91163e-38 	-9.25619e-18 0 	0 	0 8.55392e-13 	0 	-5.94965e-14 0 	0 	0 9.61923e-13 	-3.85046e-32 	-3.00017e-14 0 	0 	0 -7.34006e-13 	5.2467e-32 	-7.85505e-15 0 	0 	0 1.31101e-13 	-3.24351e-34 	6.51387e-15 0 	0 	0 -9.50631e-13 	0 	-7.55241e-14 0 	0 	0 1.78049e-14 	2.82398e-33 	1.99508e-15 0 	0 	0 1.72044e-14 	0 	2.51625e-15 0 	0 	0 -1.65337e-14 	0 	-2.97669e-15 0 	0 	0 -2.22983e-13 	3.71486e-32 	-4.68643e-14 0 	0 	0 4.45472e-13 	1.60798e-33 	1.06874e-13 0 	0 	0 8.85751e-13 	2.43557e-33 	2.38941e-13 0 	0 	0 -1.13252e-13 	2.10751e-32 	-3.38626e-14 0 	0 	0
-6.88233e-13 	1.1714e-31 	4.90603e-13 0 	0 	0 -3.27097e-14 	-5.4692e-33 	2.11751e-14 0 	0 	0 5.55331e-13 	0 	-3.23418e-13 0 	0 	0 -1.06063e-12 	-4.62597e-33 	5.50888e-13 0 	0 	0 1.52703e-13 	-1.64651e-33 	-6.97322e-14 0 	0 	0 7.12553e-13 	-1.04984e-31 	-2.84028e-13 0 	0 	0 -1.22135e-13 	0 	4.16922e-14 0 	0 	0 1.11215e-12 	0 	-3.23935e-13 0 	0 	0 9.48272e-13 	0 	-2.30204e-13 0 	0 	0 1.01653e-12 	3.83764e-32 	-1.99805e-13 0 	0 	0 -9.77046e-13 	1.82336e-32 	1.53401e-13 0 	0 	0 8.0289e-17 	-8.91163e-38 	-9.25619e-18 0 	0 	0 8.55392e-13 	0 	-5.94965e-14 0 	0 	0 9.61923e-13 	-3.85046e-32 	-3.00017e-14 0 	0 	0 -7.34006e-13 	5.2467e-32 	-7.85505e-15 0 	0 	0 1.31101e-13 	-3.24351e-34 	6.51387e-15 0 	0 	0 -9.50631e-13 	0 	-7.55241e-14 0 	0 	0 1.78049e-14 	2.82398e-33 	1.99508e-15 0 	0 	0 1.72044e-14 	0 	2.51625e-15 0 	0 	0 -1.65337e-14 	0 	-2.97669e-15 0 	0 	0 -2.22983e-13 	3.71486e-32 	-4.68643e-14 0 	0 	0 4.45472e-13 	1.60798e-33 	1.06874e-13 0 	0 	0 8.85751e-13 	2.43557e-33 	2.38941e-13 0 	0 	0 -1.13252e-13 	2.10751e-32 	-3.38626e-14 0 	0 	0 5.1528e-13 	-1.00676e-31 	1.68794e-13 0 	0 	0
-2.27332e-12 	-3.80109e-31 	1.47167e-12 0 	0 	0 5.55331e-13 	0 	-3.23418e-13 0 	0 	0 -1.06063e-12 	-4.62597e-33 	5.50888e-13 0 	0 	0 1.52703e-13 	-1.64651e-33 	-6.97322e-14 0 	0 	0 7.12553e-13 	-1.04984e-31 	-2.84028e-13 0 	0 	0 -1.22135e-13 	0 	4.16922e-14 0 	0 	0 1.11215e-12 	0 	-3.23935e-13 0 	0 	0 9.48272e-13 	0 	-2.30204e-13 0 	0 	0 1.01653e-12 	3.83764e-32 	-1.99805e-13 0 	0 	0 -9.77046e-13 	1.82336e-32 	1.53401e-13 0 	0 	0 8.0289e-17 	-8.91163e-38 	-9.25619e-18 0 	0 	0 8.55392e-13 	0 	-5.94965e-14 0 	0 	0 9.61923e-13 	-3.85046e-32 	-3.00017e-14 0 	0 	0 -7.34006e-13 	5.2467e-32 	-7.85505e-15 0 	0 	0 1.31101e-13 	-3.24351e-34 	6.51387e-15 0 	0 	0 -9.50631e-13 	0 	-7.55241e-14 0 	0 	0 1.78049e-14 	2.82398e-33 	1.99508e-15 0 	0 	0 1.72044e-14 	0 	2.51625e-15 0 	0 	0 -1.65337e-14 	0 	-2.97669e-15 0 	0 	0 -2.22983e-13 	3.71486e-32 	-4.68643e-14 0 	0 	0 4.45472e-13 	1.60798e-33 	1.06874e-13 0 	0 	0 8.85751e-13 	2.43557e-33 	2.38941e-13 0 	0 	0 -1.13252e-13 	2.10751e-32 	-3.38626e-14 0 	0 	0 5.1528e-13 	-1.00676e-31 	1.68794e-13 0 	0 	0 -2.58953e-14 	5.11105e-33 	-9.22868e-15 0 	0 	0
-2.29074e-12 	0 	1.3341e-12 0 	0 	0 -1.06063e-12 	-4.62597e-33 	5.50888e-13 0 	0 	0 1.52703e-13 	-1.64651e-33 	-6.97322e-14 0 	0 	0 7.12553e-13 	-1.04984e-31 	-2.84028e-13 0 	0 	0 -1.22135e-13 	0 	4.16922e-14 0 	0 	0 1.11215e-12 	0 	-3.23935e-13 0 	0 	0 9.48272e-13 	0 	-2.30204e-13 0 	0 	0 1.01653e-12 	3.83764e-32 	-1.99805e-13 0 	0 	0 -9.77046e-13 	1.82336e-32 	1.53401e-13 0 	0 	0 8.0289e-17 	-8.91163e-38 	-9.25619e-18 0 	0 	0 8.55392e-13 	0 	-5.94965e-14 0 	0 	0 9.61923e-13 	-3.85046e-32 	-3.00017e-14 0 	0 	0 -7.34006e-13 	5.2467e-32 	-7.85505e-15 0 	0 	0 1.31101e-13 	-3.24351e-34 	6.51387e-15 0 	0 	0 -9.50631e-13 	0 	-7.55241e-14 0 	0 	0 1.78049e-14 	2.82398e-33 	1.99508e-15 0 	0 	0 1.72044e-14 	0 	2.51625e-15 0 	0 	0 -1.65337e-14 	0 	-2.97669e-15 0 	0 	0 -2.22983e-13 	3.71486e-32 	-4.68643e-14 0 	0 	0 4.45472e-13 	1.60798e-33 	1.06874e-13 0 	0 	0 8.85751e-13 	2.43557e-33 	2.38941e-13 0 	0 	0 -1.13252e-13 	2.10751e-32 	-3.38626e-14 0 	0 	0 5.1528e-13 	-1.00676e-31 	1.68794e-13 0 	0 	0 -2.58953e-14 	5.11105e-33 	-9.22868e-15 0 	0 	0 4.9469e-13 	0 	1.89734e-13 0 	0 	0
1.06063e-12 	4.62597e-33 	-5.50888e-13 0 	0 	0 1.52703e-13 	-1.64651e-33 	-6.97322e-14 0 	0 	0 7.12553e-13 	-1.04984e-31 	-2.84028e-13 0 	0 	0 -1.22135e-13 	0 	4.16922e-14 0 	0 	0 1.11215e-12 	0 	-3.23935e-13 0 	0 	0 9.48272e-13 	0 	-2.30204e-13 0 	0 	0 1.01653e-12 	3.83764e-32 	-1.99805e-13 0 	0 	0 -9.77046e-13 	1.82336e-32 	1.53401e-13 0 	0 	0 8.0289e-17 	-8.91163e-38 	-9.25619e-18 0 	0 	0 8.55392e-13 	0 	-5.94965e-14 0 	0 	0 9.61923e-13 	-3.85046e-32 	-3.00017e-14 0 	0 	0 -7.34006e-13 	5.2467e-32 	-7.85505e-15 0 	0 	0 1.31101e-13 	-3.24351e-34 	6.51387e-15 0 	0 	0 -9.50631e-13 	0 	-7.55241e-14 0 	0 	0 1.78049e-14 	2.82398e-33 	1.99508e-15 0 	0 	0 1.72044e-14 	0 	2.51625e-15 0 	0 	0 -1.65337e-14 	0 	-2.97669e-15 0 	0 	0 -2.22983e-13 	3.71486e-32 	-4.68643e-14 0 	0 	0 4.45472e-13 	1.60798e-33 	1.06874e-13 0 	0 	0 8.85751e-13 	2.43557e-33 	2.38941e-13 0 	0 	0 -1.13252e-13 	2.10751e-32 	-3.38626e-14 0 	0 	0 5.1528e-13 	-1.00676e-31 	1.68794e-13 0 	0 	0 -2.58953e-14 	5.11105e-33 	-9.22868e-15 0 	0 	0 4.9469e-13 	0 	1.89734e-13 0 	0 	0 -5.17521e-13 	-2.24932e-31 	-2.1311e-13 0 	0 	0