/*--------------------------------*- C++ -*----------------------------------*\
| =========                 |                                                 |
| \\      /  F ield         | OpenFOAM: The Open Source CFD Toolbox           |
|  \\    /   O peration     | Version:  2.3.0                                 |
|   \\  /    A nd           | Web:      www.OpenFOAM.org                      |
|    \\/     M anipulation  |                                                 |
\*---------------------------------------------------------------------------*/
FoamFile
{
    version     2.0;
    format      ascii;
    class       volScalarField;
    location    "397";
    object      k;
}
// * * * * * * * * * * * * * * * * * * * * * * * * * * * * * * * * * * * * * //

dimensions      [0 2 -2 0 0 0 0];

internalField   nonuniform List<scalar> 
28552
(
0.00410013
0.00410287
0.00410598
0.00410953
0.00411366
0.00411847
0.00412416
0.00413094
0.00413914
0.00414917
0.00416166
0.00417749
0.00419795
0.00422538
0.00425914
0.00430095
0.00435302
0.00441819
0.00450029
0.00460448
0.00473806
0.00491098
0.0051394
0.00544312
0.00587047
0.00638581
0.00711505
0.00751263
0.00880386
0.0101492
0.0145001
0.0250928
0.0389788
0.0468284
0.00410205
0.00410499
0.0041083
0.00411207
0.00411644
0.00412154
0.00412756
0.00413475
0.00414342
0.00415405
0.00416726
0.00418399
0.0042056
0.00423454
0.00427006
0.00431399
0.00436862
0.0044369
0.00452282
0.00463172
0.00477125
0.00495168
0.00519014
0.00550677
0.00595336
0.0064536
0.00719562
0.00754449
0.00886545
0.0101097
0.0143936
0.0249634
0.0392545
0.0523651
0.00410408
0.00410723
0.00411076
0.00411477
0.0041194
0.00412481
0.00413119
0.00413881
0.004148
0.00415926
0.00417326
0.00419096
0.00421382
0.0042444
0.00428186
0.00432812
0.00438557
0.00445731
0.00454749
0.00466171
0.00480798
0.00499698
0.005247
0.00557862
0.00604783
0.00652497
0.00728552
0.00758634
0.00895436
0.0101078
0.0145772
0.0251126
0.0391867
0.0593418
0.00410622
0.00410961
0.00411337
0.00411762
0.00412254
0.00412829
0.00413506
0.00414314
0.0041529
0.00416485
0.00417969
0.00419846
0.00422268
0.00425506
0.00429466
0.00434351
0.00440413
0.00447977
0.00457481
0.00469511
0.00484921
0.00504824
0.00531201
0.0056616
0.00615845
0.00659852
0.00738215
0.00763169
0.00905978
0.0101476
0.0147387
0.0254349
0.0387562
0.0684911
0.00410841
0.00411203
0.00411604
0.00412055
0.00412577
0.00413186
0.00413904
0.00414761
0.00415795
0.00417061
0.00418634
0.00420621
0.00423186
0.00426611
0.00430796
0.00435953
0.00442348
0.00450323
0.0046034
0.00473013
0.00489254
0.00510221
0.00538061
0.00574933
0.00626382
0.00666039
0.00746052
0.00766667
0.00913741
0.0101651
0.0148207
0.0255507
0.0383101
0.0801852
0.00411069
0.00411457
0.00411884
0.00412363
0.00412917
0.00413562
0.00414324
0.00415232
0.00416329
0.00417672
0.00419339
0.00421446
0.00424163
0.00427792
0.0043222
0.00437675
0.00444435
0.00452862
0.00463446
0.00476835
0.00494006
0.00516169
0.00545671
0.00584186
0.00636195
0.0067157
0.00753488
0.00769704
0.00921646
0.0101923
0.0149083
0.0257518
0.0379102
0.0962188
0.00411304
0.0041172
0.00412175
0.00412683
0.0041327
0.00413955
0.00414763
0.00415726
0.00416889
0.00418312
0.0042008
0.00422314
0.00425194
0.00429038
0.00433728
0.00439501
0.00446653
0.00455568
0.00466766
0.00480931
0.00499114
0.00522583
0.00553908
0.00592435
0.00645097
0.0067644
0.00760045
0.00772639
0.00928421
0.0102183
0.014957
0.0258648
0.0375766
0.118368
0.00411543
0.00411992
0.00412475
0.00413015
0.00413638
0.00414364
0.0041522
0.00416241
0.00417474
0.00418983
0.00420857
0.00423225
0.00426277
0.00430351
0.00435319
0.00441432
0.00449005
0.00458442
0.004703
0.004853
0.00504577
0.00529458
0.0056276
0.00599678
0.00652914
0.00680548
0.00765438
0.00775312
0.00933685
0.010237
0.0149735
0.0259144
0.0373179
0.150153
0.00411787
0.00412271
0.00412787
0.00413359
0.0041402
0.0041479
0.00415697
0.0041678
0.00418087
0.00419687
0.00421675
0.00424187
0.00427425
0.00431747
0.00437017
0.00443502
0.00451536
0.0046155
0.00474141
0.00490075
0.00510586
0.0053707
0.0057235
0.00606275
0.00660132
0.00684195
0.00770581
0.0077822
0.00939142
0.01028
0.0149808
0.0260783
0.036775
0.200886
0.00412033
0.00412555
0.00413104
0.00413712
0.00414413
0.00415228
0.00416189
0.00417336
0.00418722
0.00420418
0.00422526
0.00425191
0.00428626
0.00433213
0.00438806
0.0044569
0.00454222
0.00464862
0.00478252
0.00495208
0.00517079
0.00545337
0.00580862
0.00611896
0.00666176
0.00686869
0.00774309
0.00780206
0.00942385
0.0103042
0.0149398
0.0262069
0.0361351
0.289684
0.0041229
0.00412854
0.00413439
0.00414085
0.00414828
0.00415693
0.00416712
0.00417929
0.00419399
0.004212
0.00423438
0.00426268
0.00429919
0.00434794
0.00440742
0.00448065
0.00457148
0.00468481
0.00482763
0.00500862
0.00524266
0.00553377
0.00588702
0.0061685
0.00671608
0.00688803
0.00777654
0.00781569
0.00945718
0.0103273
0.0149089
0.0262401
0.0360768
0.480111
0.00412546
0.0041315
0.00413772
0.00414457
0.00415244
0.00416159
0.00417237
0.00418525
0.00420081
0.00421988
0.00424358
0.00427357
0.00431225
0.00436393
0.004427
0.00450466
0.00460102
0.00472129
0.00487299
0.00506534
0.0053145
0.00560159
0.00595192
0.00620786
0.00675226
0.00690128
0.00778398
0.00782335
0.00944981
0.0102941
0.0148133
0.0259262
0.0382381
1.25567
0.0041281
0.00413456
0.00414118
0.00414845
0.00415679
0.00416648
0.0041779
0.00419154
0.00420803
0.00422825
0.00425341
0.00428524
0.00432633
0.00438125
0.00444833
0.00453098
0.00463363
0.00476187
0.00492386
0.00512949
0.00539662
0.00566878
0.00601881
0.00625086
0.00679868
0.00692278
0.00781033
0.00784726
0.00946846
0.0103281
0.0147485
0.0261775
0.052618
3.08666
0.00413082
0.00413774
0.00414476
0.00415249
0.00416133
0.00417159
0.0041837
0.00419817
0.00421568
0.00423715
0.00426388
0.00429773
0.00434146
0.00439997
0.00447151
0.00455975
0.00466948
0.00480676
0.00498055
0.00520149
0.00547497
0.00572909
0.00607728
0.00628628
0.00683449
0.00693688
0.0078227
0.00786871
0.00947274
0.0103654
0.014653
0.0265643
0.103744
6.73937
0.00413357
0.00414095
0.00414841
0.0041566
0.00416596
0.00417682
0.00418965
0.00420498
0.00422354
0.00424631
0.00427469
0.00431064
0.00435712
0.00441935
0.00449551
0.00458954
0.0047066
0.00485319
0.00503908
0.00527299
0.00553945
0.00577521
0.0061186
0.00630607
0.00684816
0.00693455
0.00781021
0.00786179
0.00944621
0.0103198
0.0145067
0.0262819
0.163977
12.7438
0.00413637
0.00414422
0.00415212
0.00416082
0.00417073
0.00418223
0.00419581
0.00421206
0.00423175
0.00425593
0.00428607
0.00432429
0.00437375
0.00444003
0.00452126
0.00462165
0.00474682
0.00490378
0.00510327
0.00534074
0.00560269
0.00582246
0.00616288
0.00633075
0.00686901
0.00694063
0.00780827
0.00787001
0.00942909
0.0103203
0.0143794
0.0282296
0.434914
21.1597
0.00413927
0.00414762
0.004156
0.00416524
0.00417575
0.00418794
0.00420235
0.00421961
0.00424054
0.00426627
0.00429837
0.00433912
0.00439192
0.00446276
0.00454972
0.00465739
0.00479188
0.00496087
0.00517624
0.00540404
0.00566096
0.00586543
0.00620197
0.00635197
0.00688492
0.00694624
0.00780066
0.00788424
0.00940303
0.0103325
0.014379
0.0425942
1.03986
30.8581
0.00414221
0.00415106
0.00415994
0.00416976
0.00418088
0.00419381
0.00420909
0.00422742
0.00424965
0.00427701
0.00431118
0.00435461
0.00441093
0.00448659
0.00457964
0.00469501
0.00483938
0.00502112
0.00524019
0.00545546
0.00570638
0.00589626
0.00622698
0.0063612
0.00688462
0.00693869
0.00777697
0.00787672
0.00936009
0.010292
0.0142135
0.0571326
1.72546
40.2328
0.0041452
0.00415458
0.00416399
0.00417441
0.0041862
0.0041999
0.00421613
0.00423559
0.00425924
0.00428837
0.0043248
0.00437114
0.00443134
0.00451233
0.00461216
0.0047362
0.00489181
0.00508704
0.00529912
0.00550278
0.00574784
0.00592363
0.00624972
0.00636799
0.00688623
0.00693309
0.00775724
0.00789038
0.00931337
0.0103612
0.0163209
0.13781
2.94327
47.6293
0.00414826
0.00415817
0.00416811
0.00417914
0.00419159
0.00420605
0.0042232
0.00424379
0.00426883
0.00429969
0.00433831
0.00438749
0.00445143
0.00453754
0.00464382
0.00477604
0.0049422
0.00513965
0.00534469
0.00553723
0.00577546
0.00593932
0.00625747
0.00636497
0.00686999
0.00691512
0.00771727
0.00785841
0.00923943
0.0102508
0.0162165
0.156428
3.4146
52.699
0.00415138
0.00416183
0.00417232
0.00418398
0.00419712
0.00421238
0.0042305
0.00425227
0.00427877
0.00431145
0.0043524
0.0044046
0.00447253
0.00456416
0.00467748
0.00481873
0.00499665
0.00519006
0.00538969
0.00557279
0.00580631
0.00595879
0.00627362
0.00636947
0.0068679
0.00691581
0.00768841
0.0078827
0.00918386
0.0105636
0.0244861
0.318105
4.68895
55.7245
0.00415458
0.00416558
0.00417662
0.00418893
0.00420275
0.00421883
0.00423791
0.00426087
0.00428884
0.00432336
0.00436664
0.00442185
0.00449379
0.00459091
0.00471123
0.00486144
0.00504682
0.00523247
0.005426
0.00560004
0.00582717
0.00596967
0.00627716
0.00636405
0.00685046
0.00689665
0.00764737
0.00784506
0.00909706
0.0104769
0.0275408
0.410686
5.2543
56.9999
0.00415784
0.0041694
0.004181
0.00419396
0.00420848
0.00422537
0.00424543
0.00426958
0.00429902
0.00433539
0.004381
0.00443923
0.00451517
0.00461779
0.00474508
0.00490421
0.00508952
0.00526794
0.00545576
0.00562157
0.00584291
0.00597661
0.00627768
0.00635669
0.00683298
0.00687677
0.00760938
0.00781242
0.0090136
0.0104012
0.0311429
0.51149
5.7743
57.3041
0.00416111
0.00417322
0.00418539
0.00419903
0.00421427
0.00423198
0.00425305
0.00427844
0.00430941
0.00434769
0.00439575
0.00445716
0.00453731
0.00464577
0.00478057
0.0049494
0.00513008
0.00530215
0.00548499
0.00564356
0.00586039
0.00598698
0.00628067
0.00635814
0.00681633
0.00687696
0.00756306
0.00781596
0.00897374
0.0115015
0.0529084
0.75222
6.92085
56.7677
0.00416441
0.00417706
0.00418981
0.00420413
0.00422008
0.00423861
0.00426067
0.00428727
0.00431974
0.0043599
0.00441035
0.00447483
0.00455909
0.0046732
0.0048152
0.0049888
0.00516399
0.00532967
0.00550667
0.00565821
0.00586829
0.00598809
0.00627278
0.00634552
0.00678953
0.0068503
0.00751271
0.00774871
0.0088717
0.0113566
0.0574977
0.88044
7.60889
55.6261
0.00416783
0.00418104
0.00419439
0.0042094
0.00422608
0.00424545
0.00426852
0.00429637
0.00433039
0.00437248
0.00442537
0.00449303
0.00458149
0.00470141
0.00485084
0.00502473
0.0051949
0.00535479
0.00552663
0.00567189
0.00587638
0.00598985
0.0062679
0.00633522
0.00676917
0.00682959
0.00746699
0.00770387
0.00879291
0.0118776
0.074006
1.1082
8.8833
54.4054
0.00417128
0.00418507
0.00419903
0.00421475
0.00423217
0.00425241
0.00427652
0.00430565
0.00434126
0.00438534
0.00444077
0.00451173
0.00460459
0.0047306
0.00488789
0.00505904
0.00522477
0.00537961
0.00554678
0.0056868
0.00588603
0.00599489
0.00626425
0.00633187
0.006748
0.0068199
0.00741821
0.00768548
0.00877797
0.0138528
0.109546
1.48954
11.015
52.9979
0.00417479
0.00418918
0.00420375
0.00422021
0.00423838
0.00425947
0.00428463
0.00431505
0.00435226
0.00439834
0.00445632
0.00453058
0.00462785
0.00475995
0.00492321
0.00508953
0.00525059
0.00540049
0.00556241
0.00569749
0.00589039
0.00599505
0.00625591
0.00632135
0.00672353
0.00679691
0.00736943
0.00764135
0.00870442
0.0148398
0.135545
1.83827
13.2649
51.5636
0.00417838
0.00419338
0.00420859
0.00422579
0.00424474
0.00426672
0.00429296
0.00432472
0.00436359
0.00441176
0.0044724
0.00455013
0.00465203
0.00479056
0.004956
0.00511789
0.00527452
0.00541988
0.00557673
0.00570784
0.00589399
0.005997
0.0062466
0.00631711
0.00669773
0.00678696
0.00732086
0.00762991
0.00893781
0.021019
0.218367
2.49819
16.483
50.0956
0.004182
0.00419761
0.00421346
0.00423142
0.00425114
0.00427401
0.00430133
0.00433443
0.00437497
0.00442522
0.00448851
0.00456969
0.00467621
0.00482115
0.00498537
0.00514281
0.00529481
0.00543574
0.00558744
0.00571445
0.00589369
0.00599404
0.00623312
0.00630488
0.00666741
0.00676282
0.00726615
0.00758719
0.00903022
0.024989
0.283073
3.15649
20.1419
48.5
0.00418567
0.0042019
0.00421839
0.00423711
0.0042576
0.00428136
0.00430974
0.00434417
0.00438635
0.00443866
0.00450457
0.00458914
0.00470019
0.0048514
0.00501152
0.00516457
0.00531183
0.00544843
0.00559467
0.00571762
0.00589006
0.00598718
0.00621716
0.00628703
0.00663576
0.00672938
0.0072088
0.00751189
0.00892084
0.0256384
0.32059
3.77926
24.3106
47.3139
0.00418942
0.0042063
0.00422346
0.00424297
0.00426425
0.00428891
0.00431841
0.00435422
0.00439811
0.00445257
0.00452122
0.00460935
0.00472517
0.00488108
0.00503709
0.00518618
0.00532914
0.00546199
0.00560324
0.00572299
0.00588897
0.0059843
0.00620473
0.00627619
0.00660809
0.00670751
0.00715697
0.00748413
0.00926463
0.0345158
0.445767
4.89187
29.4625
46.4968
0.00419326
0.00421085
0.00422867
0.00424898
0.00427108
0.00429666
0.0043273
0.00436452
0.00441016
0.00446682
0.00453828
0.00463007
0.00475087
0.00490965
0.00506174
0.00520719
0.00534588
0.00547552
0.00561159
0.00572904
0.00588782
0.0059827
0.00619197
0.00626662
0.00657947
0.00668542
0.00710421
0.00745935
0.0097172
0.0452452
0.597405
6.22377
35.3522
45.8476
0.00419714
0.00421544
0.00423394
0.00425509
0.004278
0.00430452
0.00433632
0.00437498
0.00442242
0.00448139
0.00455578
0.00465139
0.00477731
0.00493691
0.00508513
0.00522717
0.00536145
0.0054882
0.00561869
0.00573439
0.00588499
0.00598047
0.00617696
0.00625655
0.00654842
0.00666224
0.00705188
0.00746406
0.0107611
0.064596
0.835509
8.05244
41.0446
45.267
0.00420108
0.00422013
0.00423931
0.00426128
0.00428502
0.00431248
0.00434544
0.00438554
0.00443478
0.00449599
0.00457328
0.00467267
0.00480361
0.00496188
0.00510608
0.00524465
0.00537432
0.00549806
0.00562282
0.00573635
0.00587935
0.00597381
0.00615977
0.00623972
0.00651568
0.00662924
0.00699479
0.007417
0.0110899
0.0752594
1.01791
9.78229
46.2631
45.038
0.00420511
0.00422495
0.00424482
0.00426767
0.00429225
0.00432067
0.00435484
0.00439644
0.00444755
0.00451111
0.00459141
0.00469473
0.00483082
0.00498575
0.00512595
0.00526123
0.00538632
0.00550739
0.0056265
0.00573847
0.00587372
0.00596827
0.00614303
0.00622559
0.00648395
0.00660065
0.006943
0.00743808
0.0126148
0.103487
1.35301
12.0321
50.8208
45.1479
0.00420924
0.00422991
0.00425048
0.00427421
0.00429964
0.00432905
0.00436445
0.00440758
0.00446061
0.00452658
0.00460995
0.0047173
0.00485706
0.00500854
0.00514483
0.00527706
0.00539766
0.00551642
0.00562984
0.0057407
0.00586797
0.00596304
0.00612612
0.00621162
0.00645179
0.00657139
0.00689187
0.00747828
0.0145092
0.137591
1.74473
14.4568
54.7459
45.4539
0.00421347
0.00423497
0.00425627
0.00428088
0.00430719
0.0043376
0.00437426
0.00441895
0.00447394
0.00454236
0.00462889
0.00474032
0.00488227
0.00503043
0.00516286
0.00529224
0.00540831
0.00552494
0.0056325
0.00574243
0.00586148
0.00595714
0.00610845
0.00619647
0.00641901
0.00654034
0.00684256
0.00755441
0.017138
0.183002
2.22851
17.132
57.921
45.8865
0.00421778
0.00424012
0.00426214
0.00428765
0.00431485
0.00434628
0.00438422
0.0044305
0.00448749
0.00455841
0.00464815
0.0047637
0.00490644
0.00505135
0.00517991
0.00530652
0.00541799
0.00553264
0.00563431
0.00574344
0.00585437
0.00595056
0.00609045
0.00618069
0.00638627
0.00650894
0.00679778
0.00770941
0.0211746
0.247105
2.83831
19.9966
60.3388
46.398
0.00422228
0.00424545
0.00426823
0.00429466
0.00432276
0.00435525
0.00439452
0.00444246
0.00450151
0.00457504
0.00466812
0.00478786
0.00492999
0.00507166
0.00519635
0.0053203
0.00542721
0.00554001
0.00563581
0.00574433
0.00584704
0.00594403
0.00607222
0.00616503
0.00635332
0.00647786
0.00676299
0.00803308
0.0278602
0.341415
3.6259
23.135
62.0195
46.8625
0.00422694
0.00425094
0.0042745
0.00430184
0.00433087
0.00436443
0.00440506
0.00445468
0.00451583
0.00459199
0.00468845
0.00481232
0.00495257
0.00509105
0.00521182
0.00533317
0.00543542
0.00554645
0.00563624
0.0057441
0.00583873
0.00593594
0.00605312
0.00614691
0.00631972
0.00644351
0.00672444
0.00830314
0.0340581
0.438273
4.4599
26.1258
63.0943
47.3842
0.0042317
0.00425654
0.00428088
0.00430917
0.00433915
0.00437381
0.00441585
0.00446721
0.00453055
0.00460947
0.00470946
0.00483747
0.00497474
0.00511007
0.00522699
0.00534581
0.00544352
0.00555279
0.00563685
0.00574403
0.00583087
0.00592856
0.00603482
0.00613054
0.00628748
0.00641452
0.00673721
0.00940518
0.0518273
0.640184
5.74462
29.3148
63.6676
47.7248
0.00423665
0.00426232
0.00428748
0.00431671
0.00434765
0.00438345
0.00442692
0.00448004
0.0045456
0.00462729
0.00473083
0.00486206
0.00499613
0.00512834
0.00524135
0.00535769
0.00545075
0.00555833
0.00563646
0.00574287
0.00582182
0.00591942
0.00601505
0.00611095
0.00625341
0.00637979
0.00672661
0.0101315
0.0650769
0.815428
6.96501
32.1108
63.8548
48.0291
0.00424188
0.00426837
0.00429437
0.00432455
0.00435648
0.00439345
0.0044384
0.00449336
0.00456121
0.00464578
0.00475291
0.00488643
0.00501725
0.00514633
0.00525541
0.00536927
0.00545767
0.00556349
0.00563574
0.00574118
0.00581254
0.00590954
0.00599538
0.00609053
0.00621994
0.00634613
0.0067412
0.0113044
0.085334
1.06159
8.51016
34.6975
63.7143
48.3224
0.00424729
0.00427461
0.00430148
0.00433263
0.00436559
0.00440379
0.0044503
0.00450718
0.00457744
0.00466505
0.0047759
0.00491086
0.00503845
0.00516441
0.00526968
0.00538108
0.00546503
0.00556903
0.00563584
0.00574016
0.00580442
0.00590087
0.00597708
0.00607225
0.00618852
0.00632387
0.00690371
0.0146629
0.131294
1.49459
10.7223
37.213
63.2976
48.454
0.00425284
0.00428099
0.00430873
0.00434085
0.00437484
0.00441429
0.00446238
0.00452119
0.00459388
0.00468452
0.00479899
0.00493468
0.00505903
0.00518196
0.00528342
0.00539248
0.00547191
0.00557427
0.0056354
0.00573876
0.00579561
0.00589135
0.00595784
0.00605198
0.00615575
0.00629552
0.00700653
0.0171712
0.170276
1.91342
12.779
39.2105
62.82
48.5252
0.00425865
0.00428763
0.00431629
0.0043494
0.00438447
0.00442523
0.00447496
0.00453581
0.00461105
0.00470488
0.00482301
0.00495872
0.00507982
0.0051997
0.00529739
0.00540407
0.00547912
0.00557966
0.0056354
0.00573746
0.00578735
0.00588203
0.00593941
0.00603241
0.00612517
0.00628387
0.00735826
0.0233008
0.248945
2.56202
15.1326
40.9445
62.1268
48.5157
0.00426454
0.00429437
0.00432395
0.00435808
0.00439425
0.00443637
0.00448782
0.00455079
0.00462869
0.00472584
0.00484762
0.00498275
0.00510061
0.00521741
0.00531143
0.00541565
0.00548654
0.00558506
0.00563593
0.00573636
0.00577996
0.00587335
0.00592224
0.0060145
0.00609961
0.00632526
0.00842687
0.0378727
0.398764
3.51771
17.7441
42.4741
61.4145
48.2913
0.00427054
0.00430122
0.00433174
0.00436689
0.00440418
0.00444767
0.00450085
0.00456594
0.00464652
0.00474698
0.00487228
0.00500627
0.00512084
0.00523457
0.00532483
0.00542655
0.00549316
0.00558965
0.00563547
0.00573415
0.00577132
0.00586302
0.0059035
0.005994
0.00607323
0.00637302
0.00956618
0.0529454
0.552914
4.47783
20.1149
43.6696
60.7119
47.8997
0.00427698
0.00430849
0.00433999
0.00437616
0.00441461
0.00445955
0.00451453
0.00458186
0.00466521
0.00476907
0.00489771
0.00502998
0.0051411
0.00525158
0.00533794
0.00543693
0.00549915
0.00559318
0.00563397
0.00573024
0.00576132
0.00585034
0.00588336
0.00597086
0.00604795
0.00645041
0.0111192
0.0727832
0.744782
5.5805
22.3459
44.5665
60.0444
47.5394
0.0042838
0.00431616
0.00434865
0.00438585
0.00442551
0.00447197
0.00452882
0.00459845
0.00468467
0.00479199
0.00492378
0.00505384
0.00516141
0.0052685
0.00535086
0.00544688
0.00550465
0.00559595
0.00563178
0.00572527
0.00575056
0.00583641
0.00586248
0.00594649
0.0060236
0.00654466
0.0128645
0.0947609
0.95401
6.77587
24.3878
45.1875
59.102
47.2964
0.00429077
0.00432397
0.00435746
0.00439572
0.00443659
0.00448459
0.00454334
0.00461531
0.00470441
0.00481515
0.00494994
0.00507776
0.00518175
0.00528548
0.00536379
0.0054569
0.00551013
0.00559882
0.00562957
0.00572048
0.00573988
0.00582267
0.0058418
0.00592217
0.00599845
0.00662078
0.0143917
0.115612
1.16432
7.93958
26.1536
45.5082
58.1536
47.2105
0.00429814
0.0043322
0.00436675
0.0044061
0.0044483
0.00449798
0.00455881
0.00463334
0.00472562
0.00484004
0.00497762
0.00510317
0.00520363
0.00530386
0.00537843
0.00546836
0.00551771
0.0056032
0.00563001
0.00571742
0.00573226
0.00581117
0.00582472
0.00590403
0.00601733
0.00722194
0.0219067
0.189649
1.66067
9.68934
28.1419
45.8325
57.1605
46.9328
0.00430601
0.00434095
0.00437659
0.00441706
0.00446065
0.00451211
0.00457513
0.00465235
0.00474792
0.00486605
0.00500612
0.00512963
0.00522656
0.0053233
0.00539418
0.00548093
0.00552641
0.00560872
0.00563141
0.00571542
0.00572525
0.00580036
0.00580784
0.00588693
0.0060472
0.00790112
0.0297162
0.262793
2.13707
11.3287
29.761
46.0276
56.4316
46.4618
0.00431405
0.00434988
0.00438665
0.00442827
0.0044733
0.0045266
0.00459188
0.00467188
0.00477083
0.0048927
0.00503513
0.00515711
0.00525056
0.00534381
0.00541104
0.00549448
0.00553607
0.00561493
0.00563349
0.00571359
0.00571854
0.00578923
0.00579143
0.00587395
0.00613222
0.00917707
0.0431966
0.37607
2.76664
13.1516
31.2582
46.1494
55.6287
45.9626
0.0043224
0.00435915
0.00439706
0.00443988
0.00448643
0.00454167
0.00460932
0.00469225
0.00479471
0.00492034
0.00506496
0.00518588
0.00527583
0.00536551
0.00542906
0.00550893
0.00554666
0.00562163
0.00563626
0.00571192
0.00571234
0.00577817
0.00577641
0.00587154
0.00632873
0.011512
0.0651665
0.537861
3.54134
15.0339
32.6173
46.2171
54.8475
45.3891
0.0043314
0.0043691
0.0044082
0.00445226
0.00450044
0.00455776
0.00462794
0.00471396
0.00482008
0.00494945
0.00509595
0.00521618
0.00530256
0.00538849
0.00544831
0.00552433
0.00555812
0.00562891
0.00563953
0.00571045
0.00570623
0.005767
0.00576211
0.0058783
0.00661017
0.0144999
0.0912893
0.717684
4.34172
16.79
33.7506
46.2013
54.0897
44.7996
0.00434077
0.00437944
0.00441976
0.00446512
0.00451501
0.00457452
0.00464735
0.0047366
0.0048465
0.00497958
0.00512783
0.00524801
0.00533082
0.00541293
0.00546899
0.00554092
0.00557076
0.00563696
0.00564364
0.0057094
0.00570064
0.00575605
0.00575054
0.00590899
0.00711403
0.0193541
0.130516
0.961996
5.31395
18.5511
34.7176
46.0426
53.2867
44.2427
0.00435049
0.00439017
0.00443177
0.0044785
0.00453021
0.00459203
0.00466766
0.00476032
0.00487413
0.00501092
0.00516084
0.00528173
0.00536102
0.00543925
0.00549161
0.0055592
0.00558516
0.00564644
0.00564725
0.0057092
0.00569653
0.00574671
0.00574648
0.00599828
0.00811435
0.0279928
0.193161
1.30666
6.52805
20.3341
35.5818
45.8444
52.4855
43.6101
0.00436095
0.00440168
0.00444461
0.0044928
0.00454648
0.00461081
0.00468945
0.00478574
0.00490361
0.00504405
0.00519545
0.00531779
0.00539362
0.00546789
0.00551661
0.00557964
0.0056018
0.00565761
0.00565488
0.00570925
0.00568909
0.00573908
0.00575333
0.00616927
0.00972393
0.0406376
0.276859
1.7264
7.86
22.007
36.3079
45.6202
51.7467
42.9104
0.00437194
0.00441378
0.0044581
0.00450786
0.00456367
0.00463068
0.00471255
0.00481268
0.00493477
0.00507882
0.00523161
0.00535506
0.00542895
0.00549927
0.00554449
0.0056027
0.00562119
0.00567106
0.00566501
0.005712
0.00568497
0.00573235
0.00578263
0.00655146
0.0128604
0.0630147
0.408941
2.30365
9.40094
23.6825
36.9785
45.376
50.9567
42.1361
0.00438344
0.00442643
0.00447221
0.00452364
0.00458171
0.00465157
0.00473685
0.00484101
0.0049674
0.00511498
0.0052691
0.00539351
0.00546723
0.00553372
0.00557556
0.00562883
0.00564363
0.00568729
0.00567786
0.0057169
0.00568628
0.00573396
0.00585766
0.00723829
0.0179473
0.0959053
0.583547
2.98553
11.0214
25.2255
37.536
45.1194
50.2106
41.2875
0.00439568
0.00443989
0.00448723
0.00454049
0.00460103
0.00467397
0.00476294
0.00487138
0.00500222
0.00515325
0.00530852
0.00543369
0.00550909
0.00557188
0.00561062
0.00565876
0.00567005
0.00570705
0.00569433
0.00572505
0.0056943
0.00575591
0.00605076
0.00867987
0.0275136
0.151199
0.842538
3.86411
12.8131
26.7413
38.0458
44.8487
49.422
40.3468
0.00440875
0.00445426
0.00450327
0.00455853
0.00462178
0.00469806
0.004791
0.00490398
0.00503938
0.00519374
0.00535
0.00547593
0.00555489
0.00561428
0.0056503
0.00569334
0.00570138
0.00573149
0.0057156
0.0057382
0.00571177
0.00581892
0.00649121
0.0115516
0.0445334
0.238541
1.20302
4.93928
14.6876
28.1906
38.4947
44.5676
48.6445
39.2902
0.00442247
0.00446937
0.00452017
0.00457761
0.00464378
0.00472367
0.00482086
0.00493863
0.00507868
0.00523629
0.00539352
0.00552041
0.00560376
0.00566143
0.00569537
0.00573361
0.00573892
0.0057622
0.00574366
0.00575986
0.00575134
0.00598928
0.00753818
0.0176559
0.0767205
0.383902
1.72711
6.30025
16.7136
29.6318
38.926
44.2827
47.8114
38.0642
0.00443707
0.00448547
0.00453822
0.00459807
0.00466746
0.00475127
0.00485305
0.00497587
0.00512067
0.00528141
0.00543953
0.00556753
0.00565496
0.00571367
0.00574639
0.00578038
0.0057838
0.00580069
0.00578112
0.00579801
0.00585192
0.00647214
0.010211
0.0314962
0.140746
0.634761
2.50751
8.03521
18.936
31.0884
39.3431
43.9906
47.0069
36.6132
0.00445237
0.00450232
0.00455708
0.00461947
0.00469219
0.00478005
0.00488648
0.00501429
0.00516352
0.00532691
0.00548554
0.0056144
0.00570526
0.00576647
0.00579883
0.0058296
0.00583241
0.00584476
0.00582916
0.00586982
0.0061062
0.00770896
0.0163631
0.0596196
0.254178
1.01997
3.55013
10.0555
21.2097
32.5439
39.8279
43.8089
46.0227
34.9266
0.0044657
0.00451703
0.0045736
0.00463827
0.00471399
0.00480543
0.00491596
0.00504807
0.00520102
0.00536656
0.00552565
0.00565541
0.00574912
0.00581286
0.00584568
0.00587466
0.00587818
0.0058891
0.00588636
0.0059964
0.00664347
0.0103068
0.0284209
0.11012
0.438165
1.57808
4.88131
12.2977
23.4719
33.9131
40.268
43.5521
45.2669
33.2693
0.00447723
0.00452979
0.00458796
0.00465467
0.00473303
0.00482763
0.00494173
0.00507753
0.0052336
0.00540089
0.00556042
0.00569104
0.00578715
0.0058532
0.00588675
0.0059148
0.00591987
0.00593322
0.00595903
0.00622183
0.00768173
0.01517
0.0494446
0.190584
0.702853
2.30347
6.4615
14.7346
25.9405
35.5122
41.1846
44.1634
44.8069
30.8652
0.00409829
0.00410085
0.00410378
0.00410715
0.00411104
0.00411559
0.00412096
0.00412738
0.00413512
0.00414461
0.00415643
0.00417142
0.00419082
0.00421685
0.00424898
0.00428885
0.00433856
0.00440086
0.00447945
0.0045793
0.0047074
0.0048734
0.00509258
0.00538433
0.00579382
0.00631236
0.00703036
0.00748224
0.00877695
0.0101948
0.0146674
0.025318
0.0392498
0.0422072
0.00409824
0.00410076
0.00410365
0.00410695
0.00411077
0.00411522
0.00412047
0.00412672
0.00413426
0.00414347
0.00415492
0.00416939
0.00418808
0.00421307
0.00424384
0.00428194
0.00432932
0.00438855
0.00446306
0.00455745
0.00467816
0.00483405
0.0050389
0.00531067
0.0056882
0.00618832
0.00688218
0.00734056
0.00857275
0.00984495
0.0139052
0.0239129
0.0395572
0.0378845
0.00409816
0.00410065
0.00410348
0.00410672
0.00411046
0.00411481
0.00411992
0.004126
0.00413332
0.00414224
0.00415329
0.00416722
0.00418516
0.00420907
0.00423844
0.00427469
0.00431967
0.00437575
0.00444609
0.00453493
0.00464815
0.00479384
0.00498437
0.00523624
0.00558295
0.0060536
0.00674266
0.00717106
0.00838459
0.00943163
0.0130686
0.021971
0.0399578
0.0343837
0.00409806
0.0041005
0.00410328
0.00410645
0.0041101
0.00411434
0.00411932
0.00412522
0.00413231
0.00414093
0.00415158
0.00416497
0.00418217
0.004205
0.00423298
0.00426744
0.00431009
0.00436314
0.00442952
0.00451315
0.00461942
0.00475579
0.00493343
0.00516761
0.00548766
0.00592239
0.00659113
0.00702038
0.00817047
0.00916346
0.0125347
0.0204386
0.0399037
0.031433
0.00409795
0.00410034
0.00410306
0.00410616
0.00410971
0.00411384
0.00411867
0.00412439
0.00413124
0.00413955
0.00414979
0.00416263
0.00417905
0.00420079
0.00422735
0.00425998
0.00430026
0.00435024
0.00441263
0.00449103
0.00459037
0.00471748
0.00488243
0.00509925
0.00539356
0.00579314
0.00639682
0.00686363
0.00792382
0.00888258
0.0118858
0.018734
0.0394572
0.0289353
0.00409779
0.00410013
0.00410278
0.0041058
0.00410926
0.00411326
0.00411794
0.00412347
0.00413006
0.00413805
0.00414787
0.00416013
0.00417578
0.0041964
0.00422153
0.00425233
0.00429027
0.00433723
0.00439572
0.00446905
0.00456176
0.00468011
0.00483324
0.00503407
0.00530524
0.00567336
0.00622209
0.00675231
0.00776724
0.00870467
0.0115445
0.0176164
0.0375954
0.0267721
0.00409762
0.0040999
0.00410248
0.00410541
0.00410877
0.00411265
0.00411717
0.0041225
0.00412884
0.0041365
0.00414588
0.00415757
0.00417242
0.00419191
0.0042156
0.00424456
0.00428014
0.00432409
0.0043787
0.00444702
0.0045332
0.00464297
0.00478463
0.00497005
0.00521927
0.00555757
0.00605589
0.00664383
0.00762455
0.00859575
0.0113072
0.0169943
0.0364194
0.0248649
0.00409736
0.00409958
0.00410209
0.00410493
0.00410817
0.00411191
0.00411626
0.00412137
0.00412744
0.00413474
0.00414366
0.00415473
0.00416873
0.00418702
0.00420918
0.0042362
0.00426929
0.00431006
0.00436058
0.00442363
0.00450296
0.00460374
0.00473345
0.00490278
0.00512931
0.00543661
0.00588354
0.00650482
0.00747762
0.00842113
0.0109866
0.0159318
0.036274
0.0231861
0.00409706
0.00409921
0.00410163
0.00410438
0.0041075
0.0041111
0.00411526
0.00412014
0.00412592
0.00413285
0.00414128
0.0041517
0.00416482
0.00418187
0.00420246
0.00422747
0.004258
0.00429549
0.0043418
0.00439944
0.00447174
0.00456333
0.00468082
0.00483375
0.00503733
0.00531304
0.0057089
0.00626847
0.00725669
0.00815408
0.0105301
0.0142568
0.0358535
0.0217266
0.00409671
0.00409879
0.00410113
0.00410377
0.00410677
0.00411021
0.00411419
0.00411884
0.00412433
0.00413088
0.00413881
0.00414858
0.00416082
0.00417664
0.00419566
0.00421869
0.00424671
0.004281
0.00432325
0.00437567
0.00444126
0.00452413
0.00463016
0.00476786
0.0049505
0.00519752
0.00554897
0.00604922
0.00690713
0.00794298
0.0102028
0.013226
0.0341366
0.0204406
0.00409631
0.00409832
0.00410057
0.0041031
0.00410598
0.00410926
0.00411305
0.00411746
0.00412264
0.00412881
0.00413624
0.00414535
0.0041567
0.00417128
0.00418874
0.00420979
0.00423531
0.00426643
0.00430464
0.0043519
0.00441086
0.00448517
0.00458001
0.00470288
0.00486534
0.00508472
0.00539447
0.00583765
0.00657514
0.0076641
0.00987992
0.0122637
0.0328453
0.0192994
0.00409588
0.00409781
0.00409996
0.00410239
0.00410513
0.00410826
0.00411185
0.00411602
0.0041209
0.00412668
0.00413361
0.00414206
0.00415253
0.00416589
0.00418182
0.00420094
0.00422402
0.00425207
0.00428639
0.0043287
0.00438134
0.00444752
0.00453178
0.00464073
0.00478443
0.00497828
0.00525051
0.00564153
0.00627775
0.00724526
0.00963456
0.0116793
0.0315604
0.0182744
0.00409538
0.00409723
0.00409929
0.00410161
0.00410422
0.00410718
0.00411057
0.00411449
0.00411906
0.00412444
0.00413087
0.00413866
0.00414825
0.00416039
0.00417479
0.004192
0.00421267
0.00423768
0.00426815
0.00430556
0.00435195