/*--------------------------------*- C++ -*----------------------------------*\
| =========                 |                                                 |
| \\      /  F ield         | OpenFOAM: The Open Source CFD Toolbox           |
|  \\    /   O peration     | Version:  2.3.0                                 |
|   \\  /    A nd           | Web:      www.OpenFOAM.org                      |
|    \\/     M anipulation  |                                                 |
\*---------------------------------------------------------------------------*/
FoamFile
{
    version     2.0;
    format      ascii;
    class       volScalarField;
    location    "397";
    object      p;
}
// * * * * * * * * * * * * * * * * * * * * * * * * * * * * * * * * * * * * * //

dimensions      [0 2 -2 0 0 0 0];

internalField   nonuniform List<scalar> 
28552
(
659.827
682.361
705.234
727.543
751.265
776.36
802.338
829.092
856.5
884.244
911.857
938.662
963.719
985.683
1001.91
1010.43
1010.64
1002.41
985.998
961.754
930.811
893.242
852.311
804.577
760.584
705.631
663.7
604.862
575.628
510.061
511.156
427.09
479.998
402.257
619.643
642.05
663.098
682.897
703.971
726.053
748.666
771.758
795.185
818.61
841.572
863.403
883.211
899.713
910.548
914.302
910.618
899.512
881.324
856.361
825.8
789.43
750.746
705.622
664.613
613.896
575.49
520.864
494.433
431.362
432.094
349.132
380.52
320.316
577.081
598.18
616.85
634.036
652.511
671.695
691.13
710.812
730.558
750.007
768.71
786.017
801.066
812.653
818.768
818.417
811.402
797.83
778.113
752.519
722.287
686.874
649.98
606.959
567.986
519.845
483.086
429.926
402.384
337.502
328.279
239.555
237.068
163.091
531.315
550.738
566.846
581.499
597.476
613.892
630.326
646.808
663.118
678.889
693.682
706.884
717.677
724.922
726.931
723.05
713.184
697.48
676.401
650.156
620.054
585.26
549.592
508.161
470.55
424.093
388.086
335.698
307.15
241.473
227.993
146.795
133.038
50.3066
483.849
502.005
515.753
527.968
541.466
555.159
568.691
582.102
595.138
607.434
618.561
627.917
634.723
637.912
636.097
628.94
616.446
598.796
576.497
549.679
519.729
485.538
451.082
411.303
375.697
331.755
298.783
250.094
226.077
167.609
158.684
93.1105
92.4876
35.3357
435.903
452.601
464.02
473.97
485.053
496.092
506.823
517.278
527.173
536.156
543.814
549.57
552.691
552.175
546.913
536.855
522.086
502.804
479.557
452.4
422.802
389.468
356.431
318.659
285.267
244.319
214.134
169.154
147.98
94.8937
86.4918
27.9366
24.3428
-28.5712
387.708
402.933
412.045
419.842
428.592
437.075
445.124
452.749
459.652
465.495
469.882
472.265
471.957
468.017
459.598
446.906
430.098
409.378
385.335
357.93
328.695
296.135
264.326
228.132
196.571
157.694
129.897
87.4788
68.5242
19.8409
12.2074
-38.8721
-41.2864
-85.277
340.073
353.547
360.477
366.124
372.57
378.578
384.054
388.972
393.027
395.899
397.206
396.43
392.933
385.834
374.535
359.471
340.852
318.875
294.163
266.594
237.752
205.999
175.387
140.8
110.892
74.1521
47.9865
8.09976
-9.82164
-54.6489
-62.6197
-108.923
-111.853
-147.675
293.421
305.221
309.934
313.453
317.67
321.304
324.317
326.656
328.01
328.078
326.492
322.764
316.3
306.281
292.338
275.117
254.884
231.826
206.598
178.979
150.593
119.641
90.1253
56.8704
28.3293
-6.94253
-31.8299
-70.3918
-88.5429
-132.208
-143.289
-188.984
-201.456
-242.78
248.038
258.07
260.467
262.1
264.232
265.593
266.248
266.116
264.889
262.284
257.95
251.429
242.175
229.424
213.026
193.814
172.096
148.049
122.368
94.7639
66.921
36.9717
8.86661
-22.4886
-48.9951
-81.6536
-104.409
-139.522
-156.007
-194.707
-205.367
-243.786
-252.751
-290.311
204.106
212.287
212.456
212.415
212.541
211.73
210.154
207.68
204.011
198.885
191.966
182.824
170.956
155.647
136.949
115.871
92.7675
67.802
41.7181
14.1541
-13.1473
-42.1139
-68.8152
-98.2833
-122.477
-152.173
-171.529
-202.443
-214.83
-247.265
-253.417
-284.797
-285.61
-314.016
161.703
168.386
166.48
164.742
162.881
159.979
156.257
151.53
145.523
137.99
128.613
116.994
102.669
84.971
64.1365
41.3154
16.8805
-9.03706
-35.6652
-63.4334
-90.5278
-118.924
-144.621
-172.655
-195.057
-222.422
-239.291
-266.16
-274.93
-300.725
-301.481
-324.368
-319.021
-331.999
121.794
126.8
122.874
119.525
115.761
110.885
105.139
98.2961
90.1054
80.3358
68.6841
54.7797
38.198
18.3131
-4.46938
-28.8707
-54.5031
-81.2891
-108.47
-136.602
-163.966
-192.657
-219.005
-247.909
-272.043
-301.295
-321.841
-352.606
-369.349
-402.521
-416.646
-451.77
-468.79
-498.813
84.1041
87.4383
81.5767
76.6731
71.053
64.2761
56.5831
47.7077
37.4292
25.5299
11.7235
-4.32712
-23.0087
-44.904
-69.4514
-95.2746
-121.992
-149.587
-177.326
-205.844
-233.446
-262.209
-288.51
-317.147
-341.006
-369.661
-389.945
-419.393
-435.108
-465.108
-476.354
-503.63
-514.195
-542.573
48.8224
50.4301
42.7296
36.3166
28.9076
20.3193
10.7663
-0.0431346
-12.3011
-26.2175
-42.0609
-60.1439
-80.8158
-104.621
-130.833
-157.942
-185.503
-213.48
-241.035
-268.793
-294.968
-321.662
-345.273
-370.494
-390.456
-414.182
-429.041
-451.427
-460.257
-481.223
-485.093
-502.63
-503.119
-517.234
16.018
15.9034
6.53711
-1.33417
-10.4423
-20.7318
-32.0319
-44.6449
-58.7346
-74.498
-92.1829
-112.067
-134.462
-159.869
-187.427
-215.567
-243.865
-272.365
-300.304
-328.41
-354.987
-382.048
-406.135
-431.726
-452.494
-476.931
-493.872
-518.224
-531.381
-555.912
-566.574
-590.396
-601.299
-620.399
-14.217
-16.033
-26.9982
-36.2198
-46.9315
-58.8054
-71.7354
-86.0217
-101.799
-119.257
-138.623
-160.157
-184.141
-211.064
-239.973
-269.248
-298.487
-327.783
-356.352
-384.967
-412.002
-439.557
-464.447
-491.008
-513.154
-538.886
-557.542
-582.808
-597.557
-621.868
-633.491
-654.818
-665.555
-686.449
-42.2175
-45.7053
-58.1121
-68.6654
-80.9081
-94.2833
-108.762
-124.627
-141.985
-161.013
-181.908
-204.888
-230.187
-258.225
-287.9
-317.533
-346.696
-375.531
-403.281
-430.737
-456.342
-482.188
-505.089
-529.015
-548.309
-570.438
-585.538
-606.314
-617.127
-636.407
-644.146
-660.233
-667.28
-680.544
-67.7256
-72.7887
-86.4667
-98.2133
-111.818
-126.508
-142.341
-159.566
-178.268
-198.611
-220.764
-244.919
-271.271
-300.211
-330.548
-360.58
-389.899
-418.68
-446.157
-473.186
-498.167
-523.136
-545.146
-568.397
-587.329
-609.37
-624.969
-646.095
-658.464
-678.453
-688.697
-705.937
-715.432
-732.779
-90.7822
-97.2881
-112.1
-124.877
-139.664
-155.468
-172.446
-190.808
-210.62
-232.033
-255.193
-280.258
-307.387
-336.92
-367.562
-397.588
-426.536
-454.653
-481.109
-506.848
-530.251
-553.552
-573.474
-594.145
-609.822
-628.137
-639.293
-655.507
-662.454
-676.238
-680.412
-689.923
-691.83
-698.312
-111.528
-119.295
-134.978
-148.567
-164.283
-180.925
-198.751
-217.928
-238.505
-260.625
-284.408
-309.996
-337.518
-367.311
-398.05
-428.064
-456.951
-485.032
-511.531
-537.499
-561.271
-585.135
-606.066
-628.503
-646.849
-668.559
-684.462
-705.814
-719.87
-740.817
-754.164
-773.871
-788.519
-806.225
-130.053
-138.927
-155.315
-169.56
-186.037
-203.33
-221.823
-241.619
-262.767
-285.399
-309.62
-335.557
-363.329
-393.255
-423.983
-453.871
-482.466
-510.165
-536.059
-561.27
-584.033
-606.737
-626.005
-646.382
-661.904
-680.179
-691.885
-708.159
-716.386
-730.177
-736.489
-746.825
-751.941
-760.749
-146.484
-156.298
-173.22
-187.962
-205.015
-222.775
-241.734
-261.939
-283.435
-306.341
-330.737
-356.733
-384.404
-414.043
-444.238
-473.396
-501.055
-527.656
-552.342
-576.324
-597.696
-618.961
-636.669
-655.552
-669.538
-686.498
-696.956
-712.314
-719.936
-733.313
-739.812
-750.221
-756.218
-763.145
-160.812
-171.438
-188.705
-203.801
-221.271
-239.321
-258.575
-279.003
-300.66
-323.649
-348.037
-373.918
-401.358
-430.639
-460.368
-489.035
-516.193
-542.391
-566.679
-590.454
-611.874
-633.696
-652.387
-672.795
-688.846
-708.237
-721.824
-740.328
-751.939
-768.817
-779.675
-793.49
-804.677
-817.463
-173.137
-184.456
-201.888
-217.272
-235.006
-253.235
-272.657
-293.186
-314.886
-337.851
-362.133
-387.826
-414.975
-443.869
-473.084
-501.163
-527.599
-552.963
-576.215
-598.731
-618.51
-638.327
-654.48
-671.814
-684.236
-699.4
-708.186
-721.077
-726.776
-736.753
-740.915
-746.845
-749.275
-753.125
-183.457
-195.365
-212.912
-228.444
-246.333
-264.609
-284.074
-304.571
-326.184
-348.985
-373.021
-398.367
-425.053
-453.34
-481.806
-509.061
-534.588
-559.067
-581.444
-603.26
-622.355
-641.629
-657.289
-674.439
-686.821
-702.323
-711.896
-726.109
-734.105
-746.668
-754.791
-765.289
-773.243
-779.695
-192.16
-204.505
-222.026
-237.613
-255.542
-273.75
-293.139
-313.478
-334.87
-357.377
-381.029
-405.91
-432.031
-459.688
-487.481
-514.156
-539.2
-563.365
-585.575
-607.449
-626.918
-646.988
-663.9
-682.61
-696.955
-714.554
-726.47
-742.676
-752.932
-766.889
-776.441
-787.12
-797.083
-805.875
-199.174
-211.874
-229.286
-244.859
-262.741
-280.808
-300.05
-320.159
-341.274
-363.43
-386.661
-411.044
-436.584
-463.563
-490.595
-516.472
-540.623
-563.869
-584.98
-605.711
-623.722
-642.253
-657.154
-673.864
-685.815
-700.841
-710.127
-723.209
-730.456
-740.826
-747.476
-754.375
-759.587
-763.483
-204.556
-217.534
-234.763
-250.244
-267.999
-285.843
-304.855
-324.649
-345.393
-367.101
-389.793
-413.536
-438.299
-464.358
-490.294
-515.016
-537.91
-559.868
-579.673
-599.136
-615.897
-633.285
-647.17
-662.937
-674.234
-688.821
-698.19
-711.603
-720.236
-732.019
-741.184
-751.239
-760.831
-768.314
-208.446
-221.617
-238.58
-253.922
-271.482
-289.042
-307.766
-327.184
-347.505
-368.713
-390.827
-413.905
-437.903
-463.089
-488.065
-511.816
-533.694
-554.659
-573.359
-591.707
-607.211
-623.225
-635.531
-649.436
-658.616
-670.485
-676.939
-686.532
-691.184
-697.871
-701.809
-704.951
-707.407
-710.28
-210.857
-224.14
-240.776
-255.925
-273.218
-290.444
-308.821
-327.815
-347.669
-368.343
-389.856
-412.265
-435.503
-459.852
-483.891
-506.718
-527.597
-547.568
-565.21
-582.51
-596.829
-611.655
-622.658
-635.297
-643.218
-653.86
-659.3
-667.804
-671.784
-677.688
-681.606
-684.544
-686.913
-688.76
-211.863
-225.201
-241.446
-256.353
-273.319
-290.158
-308.139
-326.661
-346.01
-366.118
-387.012
-408.748
-431.257
-454.829
-478.088
-500.214
-520.487
-540.025
-557.368
-574.692
-589.335
-604.946
-617.214
-631.667
-642.066
-655.705
-664.962
-677.566
-686.471
-697.215
-706.57
-715.915
-725.124
-730.987
-211.619
-224.949
-240.775
-255.397
-272.002
-288.42
-305.973
-323.993
-342.813
-362.337
-382.6
-403.664
-425.451
-448.29
-470.812
-492.342
-512.085
-531.276
-548.361
-565.563
-580.147
-595.804
-608.072
-622.412
-632.545
-645.483
-653.892
-665.06
-672.608
-681.434
-688.809
-694.841
-700.988
-705.198
-210.216
-223.48
-238.838
-253.146
-269.353
-285.315
-302.412
-319.9
-338.166
-357.077
-376.685
-397.047
-418.079
-440.116
-461.806
-482.523
-501.45
-519.815
-536.018
-552.29
-565.83
-580.296
-591.274
-604.104
-612.758
-623.94
-630.847
-640.14
-646.21
-653.1
-659.504
-664.713
-669.625
-673.378
-207.615
-220.761
-235.625
-249.593
-265.357
-280.843
-297.45
-314.378
-332.059
-350.326
-369.238
-388.846
-409.037
-430.15
-450.802
-470.467
-488.225
-505.388
-520.235
-535.106
-547.072
-559.929
-569.202
-580.27
-587.221
-596.506
-601.63
-608.825
-613.04
-617.684
-621.46
-623.434
-626.008
-628.042
-203.874
-216.866
-231.198
-244.794
-260.086
-275.06
-291.146
-307.481
-324.547
-342.137
-360.322
-379.143
-398.474
-418.656
-438.322
-457.034
-473.865
-490.187
-504.259
-518.538
-530.067
-542.703
-551.976
-563.247
-570.743
-580.823
-587.325
-596.067
-602.525
-609.653
-616.691
-621.979
-627.479
-631.238
-199.124
-211.901
-225.685
-238.882
-253.671
-268.115
-283.659
-299.385
-315.827
-332.736
-350.205
-368.268
-386.794
-406.148
-424.984
-442.984
-459.172
-475.021
-488.728
-502.764
-514.144
-526.711
-536.027
-547.316
-554.909
-564.831
-571.227
-579.362
-585.174
-591.075
-596.891
-600.633
-604.769
-607.852
-193.404
-205.923
-219.134
-231.924
-246.182
-260.089
-275.075
-290.187
-306.002
-322.236
-339.002
-356.331
-374.091
-392.664
-410.727
-428.029
-443.568
-458.8
-471.895
-485.338
-496.076
-507.949
-516.526
-526.93
-533.686
-542.548
-548.089
-555.177
-560.28
-565.256
-570.49
-573.672
-577.399
-580.286
-186.736
-198.958
-211.581
-223.951
-237.652
-251.014
-265.425
-279.916
-295.096
-310.65
-326.71
-343.298
-360.272
-378.02
-395.213
-411.676
-426.339
-440.738
-452.946
-465.569
-475.537
-486.648
-494.589
-504.353
-510.689
-519.079
-524.45
-531.249
-536.396
-541.315
-546.631
-549.726
-553.466
-556.329
-179.143
-191.031
-203.055
-214.988
-228.112
-240.921
-254.742
-268.603
-283.138
-298.001
-313.341
-329.167
-345.331
-362.221
-378.531
-394.161
-408.044
-421.731
-433.326
-445.37
-454.868
-465.56
-473.24
-482.716
-488.968
-497.102
-502.441
-508.927
-513.95
-518.376
-523.613
-526.809
-530.331
-533.118
-170.729
-182.243
-193.653
-205.14
-217.666
-229.917
-243.131
-256.355
-270.237
-284.405
-299.028
-314.102
-329.481
-345.56
-361.051
-375.926
-389.065
-402.058
-412.928
-424.271
-433.024
-442.944
-449.857
-458.423
-463.843
-470.953
-475.388
-480.781
-484.943
-488.34
-492.266
-494.1
-496.401
-498.08
-161.533
-172.641
-183.43
-194.451
-206.36
-218.043
-230.636
-243.218
-256.442
-269.917
-283.828
-298.162
-312.772
-328.055
-342.737
-356.854
-369.272
-381.591
-391.866
-402.666
-411.004
-420.52
-427.263
-435.719
-441.404
-448.847
-454.111
-460.317
-465.823
-470.788
-476.464
-480.377
-484.668
-487.894
-151.528
-162.2
-172.369
-182.911
-194.193
-205.308
-217.272
-229.216
-241.783
-254.573
-267.785
-281.396
-295.265
-309.789
-323.729
-337.173
-348.972
-360.731
-370.47
-380.739
-388.589
-397.489
-403.583
-411.064
-415.642
-421.487
-424.984
-428.899
-431.727
-433.645
-436.171
-436.651
-437.232
-437.944
-140.796
-150.997
-160.535
-170.577
-181.218
-191.755
-203.078
-214.378
-226.282
-238.386
-250.9
-263.796
-276.933
-290.719
-303.926
-316.708
-327.875
-339.057
-348.262
-358.004
-365.371
-373.791
-379.534
-386.7
-391.226
-397.097
-401.024
-405.549
-409.543
-412.547
-416.529
-419.079
-421.519
-423.139
-129.403
-139.099
-147.998
-157.527
-167.512
-177.463
-188.128
-198.777
-210.006
-221.417
-233.229
-245.406
-257.816
-270.867
-283.376
-295.544
-306.196
-316.962
-325.89
-335.496
-342.986
-351.693
-358.095
-366.071
-371.86
-379.031
-384.589
-390.609
-396.302
-401.278
-406.458
-410.128
-413.968
-416.934
-117.323
-126.496
-134.759
-143.756
-153.076
-162.431
-172.43
-182.426
-192.977
-203.695
-214.804
-226.264
-237.951
-250.275
-262.087
-273.644
-283.767
-294.078
-302.63
-311.86
-319.007
-327.213
-333.042
-340.089
-344.762
-350.38
-354.228
-358.107
-361.379
-363.333
-365.898
-367.098
-367.868
-368.604
-104.543
-113.161
-120.781
-129.224
-137.868
-146.614
-155.933
-165.264
-175.122
-185.136
-195.527
-206.255
-217.192
-228.75
-239.807
-250.653
-260.099
-269.754
-277.687
-286.283
-292.871
-300.507
-305.966
-312.711
-317.444
-323.3
-327.876
-332.823
-337.816
-341.848
-346.748
-350.555
-353.847
-356.306
-91.1421
-99.1842
-106.155
-114.022
-121.978
-130.101
-138.725
-147.38
-156.533
-165.831
-175.491
-185.466
-195.631
-206.379
-216.619
-226.672
-235.358
-244.265
-251.533
-259.501
-265.653
-272.891
-278.241
-284.908
-289.882
-295.952
-300.971
-306.17
-311.557
-315.943
-320.537
-323.99
-327.221
-330.165
-77.0987
-84.5473
-90.8628
-98.134
-105.392
-112.878
-120.797
-128.769
-137.207
-145.783
-154.706
-163.925
-173.31
-183.241
-192.653
-201.898
-209.797
-217.884
-224.32
-231.303
-236.41
-242.304
-246.171
-250.875
-253.656
-256.965
-258.869
-260.443
-261.667
-261.882
-262.653
-262.458
-262.083
-262.409
-62.458
-69.2754
-74.9205
-81.5665
-88.109
-94.9384
-102.136
-109.411
-117.122
-124.971
-133.154
-141.623
-150.248
-159.401
-168.033
-176.516
-183.645
-190.908
-196.476
-202.447
-206.485
-211.119
-213.733
-217.039
-218.549
-220.554
-221.528
-222.381
-223.306
-223.316
-223.941
-224.026
-223.998
-224.123
-47.3117
-53.4597
-58.4187
-64.4172
-70.2233
-76.3728
-82.8268
-89.3879
-96.3581
-103.475
-110.921
-118.657
-126.555
-134.989
-142.954
-150.851
-157.496
-164.348
-169.66
-175.467
-179.581
-184.403
-187.509
-191.404
-193.798
-196.701
-198.714
-200.416
-202.268
-203.152
-204.315
-204.822
-205.107
-205.28
-31.656
-37.1066
-41.3697
-46.6887
-51.7375
-57.1797
-62.8668
-68.6938
-74.9058
-81.2818
-87.9944
-95.0211
-102.245
-110.058
-117.516
-125.065
-131.55
-138.428
-143.995
-150.235
-155.022
-160.65
-164.776
-169.752
-173.413
-177.585
-181.086
-184.221
-187.385
-189.677
-192.317
-194.236
-195.77
-196.448
-15.4506
-20.1719
-23.721
-28.3263
-32.5939
-37.3003
-42.1936
-47.2585
-52.6854
-58.298
-64.2598
-70.5703
-77.1302
-84.3519
-91.3632
-98.6398
-105.058
-112.046
-117.964
-124.732
-130.35
-136.993
-142.511
-149.107
-154.837
-161.346
-167.67
-174.142
-181.092
-187.235
-193.453
-198.602
-203.367
-207.201
1.23908
-2.70258
-5.51439
-9.36782
-12.825
-16.7558
-20.8155
-25.0762
-29.6715
-34.4724
-39.6273
-45.1559
-50.9692
-57.4844
-63.8845
-70.6492
-76.6684
-83.2828
-88.8899
-95.2564
-100.445
-106.395
-111.048
-116.303
-120.332
-124.435
-127.684
-130.284
-132.681
-133.852
-134.917
-135.026
-134.937
-135.394
18.4723
15.2815
13.2146
10.1531
7.54376
4.44557
1.27652
-2.11491
-5.80499
-9.71037
-13.9575
-18.5808
-23.4886
-29.0838
-34.5887
-40.4812
-45.6531
-51.3559
-56.0253
-61.3105
-65.3812
-70.05
-73.4623
-77.3917
-80.3033
-83.4774
-86.228
-88.7063
-91.4859
-93.5388
-95.9087
-97.7362
-99.3326
-100.745
35.9288
33.668
32.4225
30.225
28.5194
26.3205
24.109
21.6651
18.9679
16.0572
12.8323
9.24518
5.39406
0.891012
-3.54068
-8.40199
-12.6187
-17.3904
-21.2436
-25.7558
-29.2459
-33.4226
-36.6227
-40.4431
-43.5103
-46.9022
-50.0388
-52.9356
-55.8126
-57.8363
-60.1038
-61.7224
-63.1049
-64.4657
53.8013
52.4392
52.0778
50.8185
50.0767
48.8475
47.6679
46.2557
44.6437
42.828
40.7338
38.295
35.611
32.2976
29
25.1771
21.8606
17.9104
14.7359
10.8707
7.91697
4.34386
1.71856
-1.33655
-3.55125
-5.79491
-7.54741
-8.84551
-10.2964
-10.8778
-11.4264
-11.4591
-11.3377
-11.4341
72.0833
71.6427
72.1802
71.8997
72.1681
71.9775
71.9052
71.6123
71.1804
70.5626
69.7086
68.53
67.1232
65.1035
63.0258
60.3071
57.9415
54.864
52.4117
49.2335
46.8425
43.793
41.5091
38.7347
36.5351
34.0987
31.8254
29.851
27.363
25.4841
23.6583
22.1874
20.906
19.9695
90.6418
91.1862
92.6552
93.4033
94.7328
95.6499
96.7622
97.6808
98.5323
99.2282
99.7422
99.9623
99.9816
99.4139
98.7113
97.235
95.921
93.7588
92.0982
89.5592
87.4808
84.6316
82.2982
79.3322
76.7214
73.806
70.8638
68.2023
65.4693
63.317
61.1348
59.4148
57.8728
56.5509
109.366
110.949
113.391
115.229
117.679
119.78
122.162
124.394
126.646
128.792
130.829
132.625
134.27
135.38
136.295
136.308
136.313
135.347
134.551
132.86
131.836
129.942
128.327
126.276
124.631
122.907
121.293
120.05
118.578
117.594
116.8
116.362
116.005
115.588
128.189
130.836
134.28
137.266
140.894
144.259
147.999
151.653
155.433
159.18
162.919
166.5
170.015
173.089
175.939
177.775
179.434
180.056
180.703
180.331
180.09
179.066
178.575
177.338
176.261
174.933
173.27
171.811
169.919
168.3
166.891
165.72
164.626
163.658
146.963
150.708
155.176
159.358
164.217
168.923
174.105
179.291
184.732
190.242
195.881
201.482
207.148
212.522
217.683
221.731
225.426
227.972
230.365
231.704
232.915
233.18
233.467
233.121
232.884
232.348
231.755
231.504
230.809
230.304
229.976
229.766
229.574
229.33
165.505
170.335
175.878
181.301
187.433
193.543
200.242
207.058
214.286
221.721
229.458
237.327
245.447
253.486
261.372
268.065
274.231
279.113
283.594
286.882
289.874
291.855
293.53
294.364
294.98
295.236
295.017
294.822
294.356
293.943
293.541
293.103
292.61
292.162
183.687
189.599
196.224
202.898
210.322
217.879
226.144
234.671
243.791
253.291
263.313
273.695
284.581
295.685
306.776
316.646
325.854
333.685
340.893
346.744
352.04
356.159
359.853
362.608
364.887
366.708
367.947
368.913
369.511
370.045
370.433
370.66
370.735
370.751
201.338
208.313
215.995
223.896
232.604
241.611
251.456
261.732
272.803
284.468
296.921
310.026
323.972
338.55
353.379
367.059
380.031
391.61
402.404
411.727
420.246
427.361
433.74
438.934
443.366
447.083
449.922
452.248
453.871
455.052
455.843
456.268
456.394
456.464
218.189
226.175
234.868
243.945
253.89
264.304
275.686
287.693
300.71
314.567
329.522
345.483
362.714
381.118
400.205
418.375
435.961
452.302
467.856
481.964
495.144
506.804
517.472
526.723
534.938
542.152
548.131
553.204
557.169
560.273
562.548
564.043
564.888
565.409
233.821
242.693
252.265
262.354
273.379
285.022
297.763
311.302
326.063
341.906
359.159
377.796
398.174
420.336
443.749
466.631
489.254
510.961
532.091
551.96
570.943
588.399
604.712
619.399
632.779
644.817
655.185
664.027
671.04
676.578
680.751
683.695
685.677
687.102
246.875
256.397
266.63
277.486
289.343
301.913
315.686
330.382
346.473
363.837
382.878
403.613
426.502
451.726
478.788
505.798
533.067
560.005
586.977
613.352
639.498
664.796
689.565
713.239
735.968
757.493
777.183
795.027
809.975
821.686
830.439
836.471
840.074
842.034
256.679
266.692
277.396
288.722
301.135
314.291
328.763
344.212
361.172
379.525
399.702
421.794
446.298
473.564
503.05
532.936
563.482
594.267
625.578
656.91
688.478
719.669
750.607
780.654
809.636
837.264
862.993
885.143
902.949
919.259
934.932
948.592
958.777
964.621
700.802
726.126
751.536
775.742
801.448
828.869
857.39
886.895
917.331
948.415
979.707
1010.55
1040.02
1066.78
1087.87
1101.01
1105.43
1100.93
1087.63
1065.76
1036.32
999.457
958.028
909.279
862.479
804.28
758.195
693.188
655.838
582.186
570.959
474.591
521.606
413.121
740.269
767.893
795.446
821.277
848.785
878.293
909.08
941.051
974.222
1008.36
1043.05
1077.7
1111.45
1143.01
1169.23
1187.58
1197.13
1197.4
1188.36
1170.13
1143.49
1108.7
1068.14
1019.79
971.32
911.48
863.607
792.743
751.164
664.652
644.18
527.447
544.913
376.544
780.452
809.361
838.553
866.247
895.718
927.392
960.59
995.225
1031.36
1068.81
1107.23
1146.09
1184.58
1221.53
1253.66
1277.97
1293.28
1299.04
1295.03
1281.26
1258.28
1226.41
1187.56
1140.49
1091.41
1030.98
981.523
907.48
861.999
768.215
745.396
618.995
633.882
482.775
821.412
851.412
882.138
911.762
943.228
977.057
1012.67
1050
1089.14
1129.98
1172.25
1215.49
1259
1301.72
1340.25
1371.16
1393.19
1405.56
1407.79
1399.66
1381.49
1353.6
1317.56
1272.74
1224.34
1165.33
1113.55
1038.41
991.621
893.473
864.771
725.047
720.807
531.11
861.235
892.333
924.543
956.124
989.638
1025.66
1063.76
1103.88
1146.16
1190.58
1236.92
1284.85
1333.78
1382.8
1428.42
1466.85
1496.56
1516.49
1525.97
1524.6
1512.41
1489.6
1457.32
1415.43
1368.11
1310.14
1256.42
1182.64
1137.61
1041.68
1019.35
882.823
890.089
726.049
900.45
932.611
966.172
999.633
1035.18
1073.39
1113.95
1156.87
1202.32
1250.35
1300.86
1353.63
1408.21
1463.9
1517.12
1563.67
1601.92
1630.62
1648.83
1655.77
1651.12
1634.82
1607.64
1569.64
1524.06
1467.17
1411.63
1338.18
1289.37
1193.91
1170.6
1041.9
1074.95
931.637
936.987
970.059
1004.86
1040.15
1077.69
1118.01
1160.95
1206.59
1255.15
1306.76
1361.45
1419.12
1479.51
1542.17
1603.52
1659.09
1707.05
1745.88
1774.32
1791.31
1796.2
1788.61
1768.82
1736.84
1694.83
1640.29
1583.39
1507.31
1450.44
1351.01
1314.59
1173.35
1202.53
1024.63
970.46
1004.36
1040.22
1077.16
1116.48
1158.72
1203.84
1252.01
1303.49
1358.5
1417.2
1479.64
1545.75
1615.39
1685.03
1749.91
1808.12
1858.03
1898.23
1927.33
1944.21
1948
1938.42
1915.21
1879.67
1830.29
1774.2
1697.63
1632.62
1525.47
1475.28
1312.22
1311.4
1056.56
1000.04
1034.58
1071.3
1109.69
1150.64
1194.6
1241.71
1292.18
1346.33
1404.47
1466.89
1533.83
1605.41
1681.83
1759.69
1834.13
1903.26
1965.3
2018.57
2061.36
2092.13
2109.62
2113
2101.57
2075.73
2034.27
1981.75
1909.1
1840.81
1727.72
1668.45
1496.7
1483.36
1214.6
1025
1060.08
1097.49
1137.1
1179.44
1224.87
1273.63
1326.06
1382.51
1443.4
1509.13
1580.1
1656.7
1739.43
1825.11
1908.85
1988.81
2063.17
2130.16
2187.93
2234.66
2268.65
2288.4
2292.59
2280.72
2251.44
2207.38
2141.94
2072.61
1960.39
1892.26
1711.65
1685.78
1381.75
1044.54
1079.92
1117.73
1158.22
1201.59
1248.11
1298.14
1352.07
1410.32
1473.38
1541.77
1616.05
1696.83
1784.95
1877.51
1969.77
2060.04
2146.66
2227.86
2301.69
2366.08
2418.9
2458.1
2481.75
2488.39
2476.12
2445.71
2391.67
2326.25
2220.85
2146.01
1953.59
1920.77
1612.28
1057.44
1093.03
1130.97
1171.97
1215.99
1263.19
1313.99
1368.87
1428.3
1492.82
1563.06
1639.72
1723.61
1815.89
1913.98
2013.4
2112.74
2210.51
2305.12
2394.72
2477.17
2550.16
2611.29
2658.02
2688.01
2698.54
2688.68
2653.39
2599.99
2506.35
2421.64
2227.25
2175.73
1813.19
1063.36
1098.93
1136.7
1177.76
1221.96
1269.34
1320.36
1375.55
1435.42
1500.55
1571.65
1649.54
1735.19
1829.98
1931.7
2036.24
2142.54
2249.4
2355.53
2459.36
2558.98
2652.15
2736.37
2808.8
2866.43
2905.77
2924.08
2915.75
2883.37
2807.61
2726.38
2540.56
2478.61
2101.42
1062.1
1097.36
1134.65
1175.38
1219.3
1266.36
1317.04
1371.89
1431.45
1496.34
1567.29
1645.2
1731.13
1826.66
1929.91
2037.26
2148
2261.31
2376.29
2491.77
2606.28
2717.92
2824.42
2922.93
3010.18
3082.12
3134.65
3161.44
3161.03
3116.04
3050.68
2884.24
2806.84
2402.67
1052.72
1087.4
1123.91
1163.89
1207.05
1253.27
1303
1356.83
1415.29
1478.99
1548.68
1625.28
1709.89
1804.16
1906.54
2013.96
2126.04
2242.33
2362.35
2485.43
2610.64
2736.65
2861.74
2983.64
3099.44
3205.28
3296.65
3366.74
3410.69
3411.5
3380.64
3252.05
3162.95
2734.8
1036.28
1070.08
1105.52
1144.33
1186.27
1231.15
1279.38
1331.54
1388.16
1449.82
1517.25
1591.35
1673.22
1764.47
1863.84
1968.79
2079.27
2195.12
2316.28
2442.55
2573.6
2708.82
2847.29
2987.59
3127.71
3264.6
3394.19
3510.03
3605.48
3664.35
3687.68
3616.2
3545.7
3148.26
1012.39
1045.08
1079.23
1116.59
1156.93
1200.06
1246.34
1296.31
1350.48
1409.38
1473.71
1544.3
1622.18
1708.87
1803.36
1903.64
2009.88
2122.17
2240.76
2365.87
2497.69
2636.26
2781.49
2933.01
3089.99
3250.85
3412.96
3571.58
3720.32
3845.21
3938.48
3946.11
3925.31
3587.8
982.389
1013.69
1046.26
1081.8
1120.14
1161.08
1204.95
1252.22
1303.37
1358.88
1419.36
1485.58
1558.45
1639.34
1727.43
1821.23
1921.04
2027.14
2139.96
2260.03
2387.93
2524.23
2669.54
2824.4
2989.22
3164.01
3348.15
3539.51
3734.27
3922.57
4093.84
4205.55
4264.7
4044.54
945.488
975.302
1006.28
1039.93
1076.16
1114.79
1156.08
1200.45
1248.33
1300.14
1356.41
1417.81
1485.13
1559.54
1640.42
1726.71
1818.82
1917.12
2022.14
2134.6
2255.29
2385.14
2525.23
2676.78
2841.16
3019.76
3213.89
3424.25
3650.46
3888.31
4129.98
4348.34
4518.78
4510.38
905.419
933.475
962.539
993.994
1027.8
1063.8
1102.2
1143.37
1187.67
1235.47
1287.22
1343.47
1404.9
1472.47
1545.72
1623.99
1707.73
1797.36
1893.47
1996.83
2108.35
2229.15
2360.54
2504.13
2661.88
2836.1
3029.51
3245.05
3485.68
3752.89
4045.45
4349.5
4634.76
4812.76
860.151
886.532
913.839
943.191
974.607
1007.99
1043.52
1081.49
1122.17
1165.86
1212.94
1263.89
1319.26
1379.77
1445.17
1515.14
1590.11
1670.51
1756.95
1850.21
1951.22
2061.08
2181.14
2313.1
2459.07
2621.69
2804.3
3011.07
3247.18
3518.29
3830.19
4182.65
4560.05
4879.42
808.981
833.445
858.907
886.054
914.974
945.633
978.22
1013
1050.19
1089.87
1132.41
1178.22
1227.72
1281.45
1339.26
1401.17
1467.59
1538.94
1615.78
1698.84
1789.03
1887.42
1995.34
2114.37
2246.51
2394.27
2560.86
2750.35
2967.98
3220.1
3514.3
3857.2
4236.86
4633.36
765.353
788.049
811.454
836.388
862.935
891.082
920.975
952.782
986.565
1022.55
1061.11
1102.46
1146.9
1194.85
1246.4
1301.74
1361.21
1425.19
1494.18
1568.82
1649.86
1738.29
1835.27
1942.13
2060.58
2192.73
2341.22
2509.32
2700.86
2920.43
3171.13
3452.07
3741.41
3891.71
704.303
725.413
747.388
770.311
794.443
819.953
846.898
875.316
905.263
937.073
970.91
1006.9
1045.24
1086.16
1129.76
1176.64
1227.21
1281.84
1341.03
1405.34
1475.6
1552.76
1637.73
1731.6
1835.73
1951.68
2081.34
2226.4
2389.23
2567.6
2765.34
2929.92
3114.43
2584.57
8.53207
8.53671
8.55891
8.60022
8.6601
8.74118
8.84678
8.98015
9.14519
9.34675
9.5907
9.88429
10.2365
10.6588
11.1657
11.7762
12.5157
13.4186
14.5327
15.9267
17.7032
20.0205
23.1399
27.3867
32.9218
39.7117
47.9588
57.9647
70.0616
84.656
102.158
123.029
147.673
176.465
209.584
247.046
288.488
333.253
380.201
427.956
474.786
519.113
559.306
594.497
623.724
647.606
665.095
679.854
687.294
8.34589
8.34943
8.37099
8.41149
8.47017
8.5496
8.65307
8.7838
8.94561
9.14324
9.38248
9.67043
10.0159
10.4302
10.9276
11.5268
12.2528
13.1392
14.2333
15.6027
17.3485
19.6267
22.6954
26.8797
32.3452
39.0641
47.2404
57.1786
69.2195
83.7774
101.278
122.201
146.978
176.014
209.543
247.627
289.985
336.024
384.694
434.662
484.249
531.824
575.728
614.893
648.317
676.254
697.963
716.05
726.896
8.11492
8.11853
8.13959
8.17907
8.23635
8.31383
8.41479
8.54239
8.70034
8.89327
9.12686
9.40804
9.74549
10.1502
10.6361
11.2217
11.9312
12.7979
13.868
15.208
16.9169
19.1486
22.1566
26.2662
31.6488
38.2831
46.3759
56.2335
68.2047
82.7124
100.198
121.155
146.043
175.296
209.19
247.837
291.024
338.223
388.466
440.474
492.617
543.238
590.646
633.62
671.071
702.992
728.659
750.271
764.584
7.83303
7.83729
7.85731
7.89535
7.95088
8.02597
8.12382
8.24754
8.40075
8.58793
8.8146
9.08753
9.41514
9.80812
10.2802
10.8491
11.5388
12.3816
13.4226
14.7269
16.3914
18.5667
21.5017
25.5215
30.8049
37.3372
45.3285
55.0873
66.9734
81.4183
98.8802
119.871
144.877
174.362
208.65
247.9
291.963
340.377
392.25
446.35
501.094
554.8
605.742
652.566
694.087
730.076
759.766
785.045
802.828
7.5044
7.50803
7.52694
7.56352
7.61709
7.68947
7.78377
7.90308
8.05085
8.23142
8.45014
8.71354
9.0298
9.40926
9.86521
10.415
11.0817
11.8968
12.9042
14.1671
15.7801
17.8902
20.7406
24.6551
29.8216
36.2341
44.1058
53.7476
65.5292
79.8918
97.3104
118.313
143.414
173.106
207.752
247.558
292.437
341.986
395.386
451.457
508.662
565.311
619.65
670.215
715.721
755.749
789.455
818.469
839.815
7.1441
7.14755
7.1657
7.2008
7.25222
7.32169
7.4122
7.52674
7.66864
7.84207
8.05217
8.30527
8.60923
8.97405
9.41254
9.94147
10.5832
11.3681
12.3389
13.5568
15.1138
17.1527
19.9106
23.7097
28.7469
35.0245
42.7577
52.2608
63.9135
78.1658
95.5087
116.487
141.639
171.485
206.431
246.723
292.335
342.923
397.741
455.664
515.204
574.677
632.306
686.536
735.985
780.059
817.836
850.708
875.872
6.7817
6.78493
6.80211
6.83556
6.88474
6.95123
7.03786
7.14752
7.28343
7.44958
7.65091
7.8935
8.18493
8.53482
8.95553
9.46323
10.0795
10.8337
11.7671
12.9392
14.4388
16.4049
19.068
22.7474
27.6478
33.781
41.3647
50.7149
62.2183
76.3336
93.5652
114.472
139.614
169.537
204.679
245.33
291.516
342.952
398.963
458.486
520.093
582.12
642.787
700.477
753.721
801.768
843.608
880.367