/*--------------------------------*- C++ -*----------------------------------*\
| =========                 |                                                 |
| \\      /  F ield         | OpenFOAM: The Open Source CFD Toolbox           |
|  \\    /   O peration     | Version:  2.3.0                                 |
|   \\  /    A nd           | Web:      www.OpenFOAM.org                      |
|    \\/     M anipulation  |                                                 |
\*---------------------------------------------------------------------------*/
FoamFile
{
    version     2.0;
    format      ascii;
    class       surfaceScalarField;
    location    "100";
    object      phi;
}
// * * * * * * * * * * * * * * * * * * * * * * * * * * * * * * * * * * * * * //

dimensions      [0 3 -1 0 0 0 0];

internalField   nonuniform List<scalar> 
56756
(
0.390453
0.771666
-0.75199
-0.410128
0.370801
0.771018
-0.751366
0.351149
0.770304
-0.750653
0.331472
0.769615
-0.749939
0.311773
0.76893
-0.749231
0.292053
0.768276
-0.748555
0.27231
0.767683
-0.747941
0.25255
0.767174
-0.747413
0.232779
0.766778
-0.747008
0.213014
0.766539
-0.746773
0.193272
0.766513
-0.746772
0.173585
0.766778
-0.747091
0.153993
0.767438
-0.747846
0.134375
0.776228
-0.75661
0.116759
0.707343
-0.689727
0.101005
0.645079
-0.629324
0.0869788
0.588756
-0.57473
0.0745514
0.537753
-0.525326
0.0635953
0.491501
-0.480544
0.0539828
0.449498
-0.439886
0.0455911
0.411263
-0.402871
0.0382972
0.376452
-0.369158
0.0319805
0.344585
-0.338268
0.0265374
0.315614
-0.310171
0.0218262
0.288786
-0.284074
0.0178235
0.264634
-0.260631
0.0143124
0.241887
-0.238376
0.0114599
0.221775
-0.218923
0.00879086
0.202503
-0.199834
0.00681121
0.18542
-0.18344
0.00461692
0.169356
-0.167162
0.00327633
0.154591
-0.15325
0.000988865
0.14381
-0.141523
0.112819
-0.11183
0.346104
0.788843
-0.36328
0.328869
0.788252
0.311613
0.78756
0.294333
0.786896
0.277024
0.786239
0.259687
0.785613
0.242325
0.785046
0.224942
0.784557
0.207547
0.784173
0.190153
0.783933
0.172779
0.783888
0.155451
0.784106
0.138209
0.78468
0.120939
0.793498
0.105433
0.722848
0.091568
0.658944
0.0792252
0.601098
0.0682902
0.548688
0.0586501
0.501141
0.0501921
0.457956
0.0428057
0.418649
0.0363833
0.382874
0.030811
0.350157
0.0260098
0.320416
0.0218334
0.292962
0.0182753
0.268192
0.0151265
0.245036
0.0125105
0.224391
0.0100219
0.204992
0.00808784
0.187354
0.00586017
0.171584
0.00442929
0.156022
0.00196079
0.146279
0.11478
0.309865
0.804148
-0.325171
0.294501
0.803616
0.279097
0.802965
0.263657
0.802336
0.248178
0.801718
0.232667
0.801124
0.217127
0.800586
0.201562
0.800121
0.185981
0.799754
0.170393
0.79952
0.154816
0.799465
0.139275
0.799648
0.123803
0.800152
0.108299
0.809002
0.0943714
0.736776
0.0819104
0.671405
0.0708107
0.612198
0.0609691
0.55853
0.052284
0.509826
0.0446547
0.465586
0.0379801
0.425324
0.0321684
0.388686
0.0271082
0.355217
0.0227427
0.324781
0.0189195
0.296785
0.0156537
0.271458
0.0127353
0.247955
0.0102919
0.226835
0.00794338
0.20734
0.00610202
0.189195
0.00401541
0.17367
0.00281287
0.157224
0.000993524
0.148098
0.115773
0.275404
0.817807
-0.289064
0.261712
0.817308
0.247968
0.816709
0.234185
0.816119
0.220366
0.815537
0.206508
0.814981
0.192617
0.814477
0.178696
0.814042
0.164753
0.813698
0.150796
0.813477
0.136841
0.81342
0.122907
0.813581
0.109025
0.814034
0.0951016
0.822925
0.0825798
0.749298
0.0713633
0.682621
0.0613589
0.622202
0.0524755
0.567413
0.044623
0.517678
0.0377126
0.472496
0.0316528
0.431384
0.0263658
0.393973
0.0217506
0.359832
0.017766
0.328766
0.0142796
0.300272
0.0113192
0.274418
0.00869443
0.250579
0.00657729
0.228952
0.00458369
0.209334
0.00320534
0.190573
0.00163971
0.175236
0.000905759
0.157958
-0.000112646
0.149116
0.115661
0.260015
0.830464
-0.272672
0.24734
0.829982
0.234589
0.82946
0.22179
0.828918
0.208956
0.828371
0.196081
0.827857
0.183166
0.827393
0.170215
0.826992
0.157235
0.826678
0.144232
0.826479
0.13122
0.826433
0.118217
0.826585
0.105247
0.827003
0.0922228
0.83595
0.0804915
0.761029
0.0699654
0.693147
0.060558
0.63161
0.0521848
0.575786
0.0447622
0.525101
0.038211
0.479047
0.0324452
0.437149
0.0274024
0.399015
0.0229832
0.364252
0.0191637
0.332585
0.0158092
0.303626
0.0129617
0.277266
0.0104196
0.253121
0.00836301
0.231008
0.00637136
0.211326
0.00492991
0.192015
0.00329766
0.176868
0.00235012
0.158906
0.000928294
0.150538
0.116589
0.231745
0.841638
-0.242919
0.220569
0.841158
0.20932
0.84071
0.198011
0.840227
0.186658
0.839723
0.175259
0.839256
0.163812
0.83884
0.152321
0.838483
0.140789
0.83821
0.129224
0.838045
0.117634
0.838022
0.106035
0.838184
0.094448
0.83859
0.08279
0.847608
0.0722686
0.771551
0.0628086
0.702607
0.0543362
0.640082
0.0467791
0.583343
0.0400645
0.531816
0.0341248
0.484987
0.0288814
0.442393
0.024282
0.403615
0.0202351
0.368299
0.0167207
0.3361
0.0136205
0.306726
0.0109726
0.279914
0.00859942
0.255495
0.00668878
0.232919
0.00482946
0.213185
0.00353212
0.193312
0.00206114
0.178339
0.00130037
0.159666
0.000273614
0.151565
0.116862
0.214024
0.851733
-0.224118
0.203923
0.851259
0.193738
0.850894
0.183478
0.850487
0.173165
0.850037
0.162797
0.849624
0.152374
0.849263
0.141898
0.84896
0.13137
0.848737
0.120797
0.848618
0.110185
0.848634
0.0995478
0.848821
0.0889031
0.849235
0.0781726
0.858338
0.0684685
0.781255
0.0597251
0.711351
0.0518764
0.647931
0.0448584
0.590361
0.0386051
0.538069
0.0330589
0.490533
0.028146
0.447306
0.0238275
0.407933
0.0200139
0.372112
0.0167007
0.339413
0.0137633
0.309664
0.0112641
0.282413
0.00899483
0.257764
0.00717708
0.234737
0.00537319
0.214989
0.00409656
0.194589
0.00265199
0.179784
0.00179075
0.160528
0.000658349
0.152697
0.117521
0.194797
0.860662
-0.203726
0.185923
0.860133
0.176944
0.859873
0.167869
0.859562
0.15873
0.859176
0.149527
0.858826
0.14026
0.85853
0.130928
0.858292
0.121533
0.858132
0.112077
0.858074
0.102567
0.858145
0.0930105
0.858378
0.083423
0.858823
0.073731
0.86803
0.0649395
0.790046
0.0569944
0.719296
0.0498415
0.655084
0.043428
0.596775
0.0376968
0.5438
0.0326003
0.495629
0.0280705
0.451835
0.0240743
0.41193
0.0205288
0.375658
0.0174259
0.342516
0.0146566
0.312433
0.0122654
0.284804
0.0100805
0.259949
0.0082862
0.236531
0.00648046
0.216795
0.00511559
0.195954
0.00355839
0.181341
0.0024851
0.161601
0.00110925
0.154073
0.11863
0.177212
0.868651
-0.185201
0.169248
0.868098
0.161193
0.867928
0.153048
0.867706
0.144831
0.867393
0.13654
0.867117
0.128174
0.866897
0.119729
0.866736
0.111205
0.866656
0.102603
0.866676
0.0939269
0.866821
0.0851821
0.867122
0.0763802
0.867624
0.067451
0.876959
0.0593218
0.798176
0.0519482
0.726669
0.0452837
0.661748
0.0392846
0.602774
0.0339007
0.549184
0.0290949
0.500435
0.0248067
0.456124
0.0210161
0.41572
0.0176455
0.379028
0.0147049
0.345456
0.0120777
0.31506
0.00984064
0.287041
0.00777845
0.262011
0.00612981
0.23818
0.00448996
0.218434
0.0032971
0.197147
0.0020046
0.182633
0.00115672
0.162449
0.000279584
0.15495
0.11891
0.167673
0.875969
-0.174991
0.160355
0.875416
0.152928
0.875356
0.145409
0.875224
0.137804
0.874998
0.130112
0.874809
0.122333
0.874675
0.114463
0.874606
0.1065
0.87462
0.0984417
0.874734
0.0902897
0.874973
0.0820471
0.875365
0.0737209
0.875951
0.0652403
0.88544
0.0574852
0.805931
0.0504194
0.733735
0.0440047
0.668163
0.0382057
0.608573
0.0329793
0.55441
0.0282959
0.505119
0.0241004
0.460319
0.020377
0.419444
0.0170552
0.38235
0.014143
0.348368
0.0115414
0.317662
0.00931773
0.289265
0.00729866
0.26403
0.00567608
0.239802
0.00410784
0.220003
0.00296368
0.198291
0.00178106
0.183816
0.000981155
0.163249
0.00018947
0.155742
0.119099
0.144506
0.882039
-0.150575
0.138454
0.881468
0.132292
0.881518
0.126028
0.881488
0.119662
0.881364
0.113194
0.881277
0.106626
0.881244
0.0999515
0.88128
0.0931666
0.881404
0.0862687
0.881632
0.0792572
0.881985
0.0721334
0.882489
0.0649024
0.883182
0.0575009
0.892841
0.0507002
0.812731
0.0444752
0.73996
0.0387963
0.673842
0.0336371
0.613732
0.0289615
0.559086
0.0247494
0.509331
0.0209549
0.464114
0.0175742
0.422824
0.0145473
0.385377
0.0119004
0.351015
0.00953271
0.320029
0.007538
0.291259
0.00570575
0.265862
0.00429978
0.241208
0.00292471
0.221378
0.00202411
0.199191
0.00108835
0.184752
0.000646929
0.16369
0.00016531
0.156224
0.119264
0.146024
0.887459
-0.151444
0.140581
0.886911
0.135016
0.887082
0.129342
0.887162
0.12355
0.887156
0.117644
0.887183
0.111624
0.887263
0.105485
0.887419
0.0992211
0.887669
0.0928279
0.888025
0.0863031
0.88851
0.0796455
0.889146
0.072857
0.88997
0.0658743
0.899824
0.0594245
0.819181
0.0534905
0.745894
0.04805
0.679283
0.043083
0.618699
0.0385561
0.563613
0.0344515
0.513435
0.0307202
0.467845
0.0273492
0.426195
0.0242732
0.388453
0.0214901
0.353798
0.0189179
0.322602
0.0165965
0.293581
0.0143769
0.268082
0.0123702
0.243215
0.0103452
0.223403
0.00843252
0.201104
0.0064704
0.186714
0.00451072
0.16565
0.00238452
0.15835
0.121649
0.130156
0.89222
-0.134917
0.125365
0.891703
0.120443
0.892005
0.115402
0.892202
0.110227
0.892332
0.104919
0.892491
0.0994814
0.892701
0.0939063
0.892994
0.0881872
0.893388
0.0823188
0.893893
0.0762971
0.894531
0.0701199
0.895324
0.063788
0.896302
0.0572403
0.906372
0.0511613
0.82526
0.0455398
0.751516
0.0403565
0.684466
0.0355942
0.623461
0.0312206
0.567987
0.0272196
0.517436
0.0235483
0.471516
0.020201
0.429543
0.0171294
0.391525
0.0143493
0.356578
0.0117817
0.325169
0.00949766
0.295865
0.00735266
0.270227
0.00553127
0.245036
0.0038049
0.225129
0.00242734
0.202482
0.00114563
0.187996
0.000221759
0.166574
-0.000388283
0.15896
0.121261
0.117953
0.89644
-0.122173
0.113682
0.895974
0.109267
0.896419
0.104725
0.896745
0.100032
0.897025
0.0951931
0.89733
0.0902091
0.897685
0.0850716
0.898132
0.0797733
0.898686
0.0743076
0.899359
0.0686684
0.90017
0.0628511
0.901141
0.0568531
0.9023
0.0506129
0.912612
0.0447849
0.831088
0.0393692
0.756931
0.0343603
0.689475
0.0297569
0.628065
0.0255445
0.572199
0.0217264
0.521255
0.0182758
0.474967
0.015199
0.43262
0.0124459
0.394278
0.0100405
0.358984
0.00789936
0.32731
0.00609587
0.297668
0.00447493
0.271848
0.00319708
0.246314
0.00202673
0.226299
0.00116739
0.203341
0.000351942
0.188811
-0.000278839
0.167204
-0.000615842
0.159297
0.120645
0.113349
0.899822
-0.116731
0.109876
0.899447
0.106273
0.900022
0.102529
0.900488
0.0986215
0.900932
0.0945547
0.901397
0.0903292
0.90191
0.0859373
0.902524
0.0813712
0.903252
0.0766243
0.904106
0.0716911
0.905104
0.0665679
0.906264
0.0612541
0.907614
0.0556966
0.918169
0.0504837
0.836301
0.0456205
0.761794
0.0411022
0.693993
0.0369244
0.632243
0.0330633
0.57606
0.0295082
0.52481
0.0262235
0.478251
0.0232038
0.435639
0.0204153
0.397066
0.0178617
0.361537
0.015499
0.329673
0.0133454
0.299822
0.0112911
0.273902
0.00939955
0.248206
0.0075781
0.228121
0.00582223
0.205097
0.00417365
0.19046
0.00248082
0.168897
0.000917707
0.16086
0.121563
0.106967
0.902826
-0.10997
0.103837
0.902577
0.100565
0.903294
0.0971492
0.903904
0.0935562
0.904525
0.0897926
0.90516
0.0858574
0.905845
0.0817426
0.906638
0.0774407
0.907554
0.0729437
0.908603
0.0682449
0.909803
0.063338
0.911171
0.0582179
0.912734
0.0528264
0.923561
0.047728
0.8414
0.0429296
0.766593
0.038429
0.698494
0.0342261
0.636446
0.0303094
0.579977
0.026681
0.528438
0.0233165
0.481616
0.0202069
0.438749
0.0173168
0.399956
0.0146478
0.364206
0.0121488
0.332172
0.00987235
0.302098
0.00772761
0.276047
0.00581299
0.25012
0.00404116
0.229893
0.0024642
0.206674
0.00107008
0.191854
-0.00015225
0.17012
-0.000765597
0.161473
0.120797
0.0934784
0.905445
-0.0960981
0.0907194
0.905336
0.0878168
0.906197
0.0847571
0.906964
0.0815079
0.907774
0.0780749
0.908593
0.0744564
0.909464
0.0706449
0.91045
0.0666325
0.911567
0.062412
0.912823
0.0579778
0.914237
0.0533268
0.915822
0.0484589
0.917602
0.0433277
0.928692
0.0384854
0.846242
0.0339504
0.771128
0.0297311
0.702713
0.0258342
0.640342
0.0222465
0.583564
0.0189661
0.531718
0.0159752
0.484607
0.0132713
0.441453
0.0108275
0.4024
0.00865141
0.366383
0.00670541
0.334118
0.0050179
0.303786
0.00350833
0.277556
0.00221957
0.251409
0.00108507
0.231027
9.61644e-05
0.207663
-0.000747016
0.192697
-0.00158791
0.170961
-0.00155639
0.161442
0.119241
0.0918443
0.907572
-0.0939707
0.0895384
0.907642
0.087103
0.908632
0.0845025
0.909565
0.0817081
0.910569
0.0787249
0.911577
0.0755508
0.912638
0.0721795
0.913821
0.0686048
0.915141
0.0648199
0.916608
0.0608201
0.918237
0.0566018
0.92004
0.0521641
0.92204
0.0474606
0.933396
0.0429919
0.850711
0.0387749
0.775345
0.0348139
0.706674
0.0311128
0.644044
0.0276658
0.587011
0.0244681
0.534916
0.0215087
0.487566
0.0187812
0.44418
0.0162639
0.404917
0.0139312
0.368715
0.0117505
0.336299
0.00971558
0.305821
0.00778774
0.279484
0.00595958
0.253237
0.00425772
0.232729
0.00256652
0.209354
0.00110482
0.194159
-0.000489102
0.172554
-0.000922612
0.161875
0.118318
0.0844001
0.910033
-0.0868611
0.0817532
0.910289
0.0789815
0.911404
0.0760484
0.912498
0.0729254
0.913692
0.0696183
0.914884
0.0661251
0.916131
0.0624413
0.917505
0.0585613
0.919021
0.0544794
0.92069
0.0501921
0.922524
0.0456982
0.924534
0.0409993
0.926739
0.0360531
0.938342
0.0313926
0.855371
0.0270365
0.779701
0.0229959
0.710715
0.0192767
0.647763
0.015874
0.590414
0.0127857
0.538004
0.00999836
0.490354
0.00749178
0.446687
0.0052622
0.407147
0.00330806
0.370669
0.00162282
0.337984
0.000202486
0.307241
-0.000964192
0.280651
-0.00192181
0.254195
-0.00258351
0.233391
-0.00317082
0.209941
-0.00338572
0.194373
-0.00369857
0.172867
-0.00273213
0.160909
0.115586
0.0766394
0.911713
-0.0783196
0.0747943
0.912134
0.0728552
0.913343
0.0707808
0.914572
0.0685476
0.915925
0.066162
0.917269
0.0636245
0.918669
0.0609342
0.920195
0.0580894
0.921866
0.0550878
0.923692
0.0519298
0.925682
0.0486166
0.927847
0.0451523
0.930203
0.0415055
0.941989
0.0380647
0.858812
0.0348377
0.782928
0.0318199
0.713732
0.0290065
0.650576
0.0263835
0.593037
0.0239348
0.540453
0.0216499
0.492638
0.0195122
0.448825
0.0175016
0.409158
0.0155719
0.372599
0.013709
0.339847
0.011865
0.309085
0.0100679
0.282448
0.00820523
0.256058
0.0063745
0.235222
0.00442563
0.21189
0.00262272
0.196176
0.000578074
0.174912
-0.000141642
0.161629
0.115444
0.069782
0.914142
-0.0722111
0.0672027
0.914714
0.0645452
0.916
0.0617721
0.917345
0.0588595
0.918838
0.0558163
0.920312
0.0526421
0.921843
0.0493383
0.923499
0.0459038
0.925301
0.0423373
0.927258
0.0386388
0.929381
0.0348098
0.931676
0.0308523
0.93416
0.0267299
0.946111
0.022877
0.862665
0.0192937
0.786511
0.0159778
0.717048
0.0129234
0.65363
0.0101242
0.595836
0.00757658
0.543001
0.00526925
0.494946
0.0031921
0.450902
0.00135081
0.410999
-0.00025107
0.374201
-0.00161572
0.341211
-0.00275227
0.310222
-0.00363626
0.283332
-0.0043592
0.256781
-0.00479825
0.235661
-0.00516332
0.212255
-0.00515002
0.196163
-0.00511262
0.174875
-0.00341142
0.159927
0.112033
0.0622916
0.916199
-0.0643482
0.0601026
0.916903
0.0578545
0.918248
0.0555113
0.919688
0.0530534
0.921295
0.0504881
0.922878
0.0478173
0.924514
0.0450441
0.926272
0.0421701
0.928175
0.0391961
0.930232
0.0361259
0.932451
0.0329644
0.934838
0.0297202
0.937405
0.0263706
0.949461
0.0232752
0.86576
0.0204339
0.789352
0.0178384
0.719644
0.0154827
0.655986
0.0133461
0.597973
0.0114127
0.544934
0.00966614
0.496692
0.00809605
0.452472
0.00668089
0.412414
0.00540529
0.375477
0.00424477
0.342372
0.00318106
0.311286
0.00221257
0.2843
0.00127757
0.257716
0.000501502
0.236437
-0.000386566
0.213143
-0.00108812
0.196865
-0.00193837
0.175725
-0.0015047
0.159494
0.110528
0.0560806
0.917953
-0.0578351
0.0542105
0.918773
0.0522987
0.92016
0.0503106
0.921676
0.0482266
0.923379
0.0460568
0.925047
0.043802
0.926769
0.0414675
0.928607
0.0390554
0.930587
0.0365681
0.932719
0.0340089
0.93501
0.0313832
0.937463
0.0286958
0.940092
0.0259265
0.95223
0.0233637
0.868323
0.0209992
0.791717
0.01882
0.721823
0.0168104
0.657996
0.0149586
0.599825
0.0132481
0.546645
0.0116532
0.498287
0.0101519
0.453973
0.00872319
0.413843
0.00735462
0.376845
0.00603634
0.34369
0.0047517
0.31257
0.00350093
0.285551
0.00228499
0.258932
0.00117186
0.23755
1.78649e-05
0.214297
-0.000952091
0.197835
-0.00194936
0.176722
-0.00145864
0.159003
0.109069
0.0556044
0.920503
-0.0581536
0.0529435
0.921434
0.0502642
0.92284
0.0475161
0.924425
0.0446896
0.926206
0.0417901
0.927947
0.0388197
0.929739
0.0357844
0.931642
0.0326863
0.933685
0.0295273
0.935878
0.0263113
0.938226
0.0230419
0.940733
0.0197252
0.943409
0.0163336
0.955622
0.0132226
0.871434
0.0103807
0.794559
0.00779648
0.724407
0.00546143
0.660331
0.00336007
0.601926
0.00149036
0.548514
-0.000152328
0.49993
-0.00157024
0.455391
-0.00276911
0.415042
-0.0037568
0.377833
-0.0045312
0.344465
-0.00512874
0.313168
-0.00551851
0.285941
-0.00580547
0.259218
-0.0058267
0.237571
-0.00583407
0.214304
-0.00554792
0.197548
-0.0052058
0.17638
-0.00332704
0.157124
0.105742
0.0540003
0.92257
-0.0560674
0.0518291
0.923605
0.0496483
0.92502
0.0474152
0.926658
0.0451205
0.928501
0.0427702
0.930297
0.0403666
0.932142
0.0379166
0.934092
0.0354231
0.936178
0.0328895
0.938412
0.03032
0.940795
0.0277212
0.943332
0.0250997
0.94603
0.0224406
0.958281
0.0200211
0.873854
0.0178298
0.79675
0.0158497
0.726387
0.0140629
0.662118
0.0124484
0.60354
0.0109823
0.54998
0.00964562
0.501267
0.00841842
0.456618
0.00728589
0.416174
0.00622482
0.378894
0.00522922
0.34546
0.00427035
0.314127
0.00335661
0.286855
0.0024043
0.260171
0.0015077
0.238468
0.000526016
0.215286
-0.000403022
0.198477
-0.001315
0.177292
-0.000981869
0.156791
0.10476
0.0436363
0.92434
-0.0454063
0.0417881
0.925453
0.0399369
0.926872
0.0380492
0.928545
0.0361135
0.930436
0.0341378
0.932273
0.0321237
0.934157
0.030079
0.936137
0.0280072
0.93825
0.025912
0.940507
0.0237984
0.942909
0.021671
0.945459
0.0195355
0.948166
0.0173729
0.960443
0.015404
0.875823
0.0136077
0.798546
0.0119644
0.728031
0.0104564
0.663626
0.00906583
0.604931
0.00778082
0.551265
0.00657981
0.502468
0.0054478
0.45775
0.00436981
0.417252
0.00333884
0.379925
0.00235579
0.346443
0.00140509
0.315077
0.000524022
0.287736
-0.000322807
0.261018
-0.0010695
0.239214
-0.00182451
0.216041
-0.00238876
0.199042
-0.00279705
0.1777
-0.0017489
0.155743
0.103012
0.0407333
0.926442
-0.0428358
0.0385566
0.92763
0.0363837
0.929045
0.0341828
0.930746
0.0319453
0.932674
0.0296777
0.934541
0.0273813
0.936453
0.0250636
0.938454
0.0227275
0.940586
0.0203763
0.942858
0.0180138
0.945272
0.0156449
0.947828
0.0132737
0.950537
0.0108847
0.962832
0.00872279
0.877984
0.00677554
0.800494
0.00502775
0.729778
0.00346618
0.665187
0.002079
0.606318
0.000853397
0.552491
-0.000214368
0.503535
-0.0011346
0.45867
-0.00190965
0.418027
-0.00255802
0.380573
-0.0030799
0.346965
-0.00350266
0.3155
-0.00378281
0.288016
-0.00399804
0.261233
-0.00411483
0.239331
-0.00423404
0.21616
-0.00416072
0.198968
-0.00399777
0.177537
-0.00237395
0.154119
0.100638
0.0353289
0.928162
-0.0370484
0.033547
0.929411
0.031774
0.930818
0.0299846
0.932536
0.0281696
0.934489
0.0263373
0.936373
0.0244883
0.938302
0.0226311
0.940312
0.0207691
0.942448
0.0189072
0.94472
0.0170517
0.947127
0.0152094
0.94967
0.0133901
0.952356
0.0115855
0.964637
0.00998636
0.879584
0.00857361
0.801906
0.00733079
0.731021
0.00623947
0.666279
0.00527705
0.607281
0.00442861
0.553339
0.00366854
0.504295
0.00298428
0.459355
0.00235146
0.41866
0.00176429
0.38116
0.00121079
0.347519
0.000664975
0.316046
0.000147044
0.288534
-0.000408183
0.261788
-0.000921162
0.239844
-0.00152574
0.216765
-0.00197757
0.19942
-0.00228521
0.177845
-0.00125543
0.153089
0.0993822
0.0303586
0.930097
-0.0322939
0.0283722
0.931398
0.0263997
0.93279
0.0244176
0.934518
0.0224187
0.936488
0.0204105
0.938381
0.0183934
0.940319
0.0163756
0.942329
0.01436
0.944464
0.0123514
0.946729
0.0103543
0.949124
0.00837472
0.95165
0.00641798
0.954313
0.00447338
0.966581
0.00273743
0.88132
0.00119354
0.80345
-0.000177286
0.732392
-0.00139104
0.667492
-0.00245754
0.608347
-0.00339083
0.554273
-0.00419476
0.505099
-0.00488093
0.460041
-0.0054456
0.419225
-0.00590265
0.381617
-0.00623577
0.347852
-0.00647634
0.316286
-0.0065743
0.288632
-0.00659759
0.261811
-0.00645352
0.2397
-0.00630549
0.216617
-0.00591294
0.199028
-0.00510657
0.177039
-0.00287437
0.150857
0.0965078
0.0291721
0.931841
-0.0309158
0.0273847
0.933185
0.0256175
0.934557
0.0238484
0.936287
0.0220722
0.938264
0.0202948
0.940159
0.0185168
0.942097
0.0167464
0.9441
0.0149863
0.946224
0.013241
0.948474
0.0115152
0.95085
0.00981428
0.953351
0.00814562
0.955981
0.0065
0.968227
0.00505013
0.882769
0.00377642
0.804724
0.00266673
0.733502
0.00170511
0.668454
0.000875711
0.609177
0.000166882
0.554982
-0.00043227
0.505698
-0.00093411
0.460543
-0.00134608
0.419637
-0.0016864
0.381958
-0.00195397
0.348119
-0.00218534
0.316518
-0.00235864
0.288805
-0.00252663
0.261979
-0.00264241
0.239816
-0.00282538
0.2168
-0.0029173
0.19912
-0.00271468
0.176836
-0.00138481
0.149527
0.095123
0.0265242
0.933126
-0.0278092
0.025204
0.934506
0.0239097
0.935852
0.0226203
0.937576
0.0213335
0.939551
0.0200534
0.941439
0.0187811
0.943369
0.0175242
0.945357
0.016285
0.947463
0.0150677
0.949691
0.013876
0.952041
0.0127143
0.954513
0.0115862
0.95711
0.0104858
0.969327
0.00951957
0.883736
0.00867116
0.805572
0.0079193
0.734254
0.00724682
0.669126
0.00663877
0.609785
0.00607479
0.555546
0.00553958
0.506234
0.00501402
0.461068
0.00448799
0.420163
0.00394193
0.382504
0.00337972
0.348682
0.0027727
0.317125
0.00217294
0.289405
0.00145244
0.2627
0.000798271
0.24047
6.17629e-06
0.217592
-0.000630005
0.199756
-0.000991807
0.177198
-0.000278661
0.148814
0.0948443
0.0206119
0.9345
-0.0219865
0.0192095
0.935908
0.0178336
0.937228
0.0164677
0.938942
0.0151091
0.940909
0.0137631
0.942785
0.0124295
0.944703
0.0111158
0.94667
0.00982357
0.948755
0.00855666
0.950958
0.00731822
0.95328
0.006111
0.95572
0.00493843
0.958282
0.00378967
0.970476
0.00277868
0.884747
0.00188111
0.80647
0.0010835
0.735051
0.000365124
0.669845
-0.000284612
0.610434
-0.00087682
0.556138
-0.00141591
0.506773
-0.0019111
0.461563
-0.0023549
0.420606
-0.00275655
0.382906
-0.00309462
0.34902
-0.00339282
0.317423
-0.00359878
0.289611
-0.00380374
0.262905
-0.00388529
0.240552
-0.00399158
0.217698
-0.00382812
0.199592
-0.0032523
0.176622
-0.00153184
0.147094
0.0933125
0.0148617
0.935675
-0.0160367
0.0136673
0.937102
0.0125035
0.938391
0.0113535
0.940092
0.0102176
0.942045
0.00910011
0.943902
0.00800064
0.945802
0.00692634
0.947745
0.0058783
0.949804
0.00486054
0.951976
0.00387567
0.954265
0.00292677
0.956669
0.00201669
0.959192
0.0011405
0.971352
0.00038315
0.885504
-0.00026889
0.807122
-0.000830802
0.735613
-0.00131109
0.670325
-0.00172022
0.610843
-0.00206552
0.556483
-0.00235463
0.507062
-0.00259086
0.4618
-0.00277994
0.420796
-0.00293238
0.383058
-0.00304304
0.34913
-0.00314448
0.317524
-0.00322098
0.289687
-0.00331922
0.263003
-0.00335441
0.240587
-0.00344142
0.217785
-0.00331817
0.199469
-0.00268474
0.175988
-0.00104478
0.145454
0.0922677
0.013169
0.936956
-0.0144497
0.0118736
0.938398
0.0106114
0.939653
0.00936585
0.941338
0.00813944
0.943272
0.00693535
0.945106
0.00575341
0.946984
0.00460048
0.948898
0.0034777
0.950926
0.00238941
0.953064
0.00133898
0.955315
0.000330579
0.957677
-0.000629864
0.960153
-0.00154573
0.972268
-0.00232092
0.886279
-0.00297395
0.807775
-0.00351253
0.736152
-0.00395335
0.670766
-0.00430135
0.611191
-0.00457079
0.556753
-0.004765
0.507256
-0.00490029
0.461935
-0.00497553
0.420871
-0.00500852
0.383091
-0.00498645
0.349108
-0.00494027
0.317478
-0.00483907
0.289586
-0.00472895
0.262893
-0.00455412
0.240412
-0.00440665
0.217638
-0.00405027
0.199113
-0.00305018
0.174988
-0.00111582
0.143519
0.0911519
0.0101186
0.937827
-0.0109895
0.00923932
0.939277
0.00839779
0.940495
0.00757642
0.942159
0.00678044
0.944068
0.00601196
0.945875
0.0052714
0.947725
0.00456539
0.949604
0.00389507
0.951597
0.00326512
0.953694
0.00267882
0.955902
0.00214036
0.958216
0.00165452
0.960639
0.00122198
0.972701
0.000883914
0.886617
0.00062488
0.808034
0.000429813
0.736347
0.000284478
0.670911
0.000176985
0.611299
9.0048e-05
0.556839
1.79716e-05
0.507328
-5.63115e-05
0.462009
-0.000127725
0.420942
-0.000218876
0.383182
-0.000313952
0.349203
-0.000448747
0.317613
-0.000592455
0.28973
-0.000794187
0.263095
-0.00100252
0.24062
-0.00129078
0.217926
-0.00137534
0.199197
-0.000882614
0.174496
0.000283781
0.142353
0.0914357
0.00543085
0.938642
-0.006246
0.00461198
0.940096
0.00383455
0.941272
0.00307866
0.942915
0.00235222
0.944794
0.00165695
0.94657
0.000992851
0.948389
0.000366141
0.95023
-0.000222697
0.952185
-0.000769511
0.954241
-0.00127189
0.956404
-0.00172707
0.958671
-0.00213147
0.961043
-0.00248716
0.973056
-0.00276156
0.886892
-0.00297456
0.808247
-0.00313646
0.736509
-0.00326533
0.67104
-0.0033669
0.611401
-0.00345038
0.556923
-0.00351792
0.507396
-0.00357547
0.462067
-0.00361917
0.420986
-0.00366078
0.383224
-0.00367847
0.349221
-0.00369967
0.317634
-0.00367873
0.289709
-0.00367609
0.263092
-0.00359958
0.240544
-0.00354101
0.217868
-0.00316428
0.198821
-0.00201314
0.173345
-0.000279498
0.140619
0.0911562
0.00181717
0.939308
-0.00248327
0.00115158
0.940761
0.000530608
0.941893
-6.78715e-05
0.943513
-0.00063252
0.945359
-0.00116358
0.947101
-0.00166
0.948885
-0.00211667
0.950687
-0.00253344
0.952602
-0.00290646
0.954614
-0.003234
0.956731
-0.0035137
0.95895
-0.00374316
0.961272
-0.00392267
0.973236
-0.00403897
0.887008
-0.00410583
0.808314
-0.00413391
0.736537
-0.00412947
0.671036
-0.0040989
0.61137
-0.00404616
0.55687
-0.00397484
0.507324
-0.0038887
0.461981
-0.00378433
0.420882
-0.00367476
0.383114
-0.00354402
0.34909
-0.00342691
0.317517
-0.00328836
0.28957
-0.00319106
0.262995
-0.00306595
0.240419
-0.00299341
0.217795
-0.00261401
0.198441
-0.0014116
0.172142
0.000163746
0.139044
0.0913199
-0.00124699
0.939848
0.000707303
-0.00178108
0.941296
-0.00226834
0.942381
-0.00273167
0.943977
-0.0031574
0.945785
-0.0035472
0.947491
-0.00389945
0.949238
-0.00420985
0.950997
-0.0044783
0.952871
-0.00470117
0.954837
-0.00487673
0.956907
-0.00500243
0.959076
-0.00507469
0.961345
-0.00509047
0.973252
-0.00504907
0.886967
-0.00496341
0.808228
-0.00483899
0.736412
-0.00468927
0.670886
-0.00451646
0.611197
-0.00433607
0.55669
-0.00414952
0.507138
-0.00396772
0.461799
-0.00378877
0.420703
-0.00362893
0.382954
-0.00347071
0.348932
-0.00334509
0.317392
-0.00321368
0.289439
-0.00312878
0.26291
-0.00302294
0.240313
-0.00295613
0.217728
-0.00250362
0.197989
-0.00117319
0.170812
0.000309412
0.137561
0.0916293
-0.00252048
0.940346
0.0020219
-0.00300805
0.941783
-0.00344746
0.94282
-0.00386169
0.944391
-0.00423524
0.946158
-0.00457129
0.947827
-0.0048673
0.949534
-0.00511983
0.95125
-0.00532862
0.953079
-0.00548994
0.954998
-0.00560195
0.957019
-0.00566153
0.959136
-0.00566519
0.961348
-0.00560934
0.973196
-0.0055042
0.886861
-0.00536431
0.808088
-0.00520201
0.73625
-0.00502795
0.670712
-0.00485145
0.611021
-0.00467608
0.556514
-0.00450686
0.506969
-0.00434332
0.461635
-0.00418805
0.420547
-0.00404468
0.382811
-0.00389872
0.348786
-0.00377306
0.317266
-0.00363215
0.289298
-0.003524
0.262802
-0.00338285
0.240172
-0.00324724
0.217593
-0.00266861
0.19741
-0.00113508
0.169278
0.00034241
0.136084
0.0919718
-0.00810348
0.940668
0.00778139
-0.0084064
0.942086
-0.0086619
0.943076
-0.00889087
0.94462
-0.0090762
0.946343
-0.00922203
0.947973
-0.00932512
0.949637
-0.00938302
0.951308
-0.00939557
0.953092
-0.00935939
0.954962
-0.00927335
0.956933
-0.00913508
0.958997
-0.00894268
0.961156
-0.00869165
0.972945
-0.00841233
0.886582
-0.00811489
0.807791
-0.00780472
0.73594
-0.00748724
0.670394
-0.00716346
0.610697
-0.00683702
0.556188
-0.0065097
0.506641
-0.00618612
0.461312
-0.00586122
0.420222
-0.0055464
0.382496
-0.00522405
0.348464
-0.00492245
0.316964
-0.00460852
0.288984
-0.00433279
0.262526
-0.00403869
0.239877
-0.00376004
0.217314
-0.00296876
0.196619
-0.00125266
0.167562
0.000224372
0.134607
0.0921961
-0.0123399
0.940661
0.0123469
-0.0123069
0.942053
-0.0122269
0.942996
-0.0121175
0.94451
-0.0119614
0.946187
-0.0117635
0.947775
-0.0115203
0.949394
-0.0112303
0.951018
-0.0108933
0.952755
-0.0105062
0.954575
-0.010068
0.956495
-0.00957629
0.958506
-0.00902856
0.960608
-0.00841571
0.972332
-0.00780362
0.88597
-0.00720071
0.807188
-0.00661317
0.735352
-0.00604897
0.66983
-0.00551396
0.610162
-0.00501446
0.555689
-0.00455218
0.506179
-0.00413436
0.460894
-0.00375621
0.419844
-0.00343258
0.382172
-0.00314592
0.348177
-0.00292259
0.316741
-0.0027317
0.288793
-0.00261106
0.262405
-0.00250812
0.239775
-0.00241901
0.217225
-0.00173745
0.195937
-0.000293903
0.166119
0.000669333
0.133644
0.0928655
-0.0135777
0.940831
0.0134083
-0.0137163
0.942192
-0.0138092
0.943088
-0.0138716
0.944573
-0.0138864
0.946202
-0.0138589
0.947747
-0.0137851
0.94932
-0.0136643
0.950897
-0.0134966
0.952587
-0.013279
0.954358
-0.0130114
0.956227
-0.0126914
0.958186
-0.0123187
0.960235
-0.011887
0.9719
-0.0114485
0.885531
-0.0110115
0.806751
-0.0105861
0.734927
-0.010173
0.669417
-0.00977709
0.609766
-0.00939202
0.555303
-0.00902415
0.505811
-0.00865797
0.460528
-0.00829748
0.419484
-0.0079324
0.381807
-0.00754758
0.347792
-0.00715779
0.316351
-0.00672892
0.288364
-0.00630937
0.261986
-0.00582128
0.239286
-0.00526991
0.216673
-0.00401755
0.194685
-0.00189637
0.163997
-0.000234194
0.131981
0.0926313
-0.0184465
0.94057
0.0187072
-0.018148
0.941893
-0.0178044
0.942745
-0.0174273
0.944196
-0.0169999
0.945775
-0.0165274
0.947275
-0.0160063
0.948799
-0.0154364
0.950327
-0.014818
0.951969
-0.0141484
0.953688
-0.0134276
0.955506
-0.0126539
0.957412
-0.0118267
0.959408
-0.0109355
0.971009
-0.0100763
0.884672
-0.00925413
0.805929
-0.00847019
0.734143
-0.00772794
0.668675
-0.00702842
0.609066
-0.00637183
0.554647
-0.00576024
0.5052
-0.00518984
0.459957
-0.00466437
0.418958
-0.00419194
0.381335
-0.00376258
0.347363
-0.0034047
0.315993
-0.00309275
0.288052
-0.00287545
0.261768
-0.00268946
0.2391
-0.00249382
0.216478
-0.00159605
0.193787
-0.000117366
0.162519
0.000705142
0.131159
0.0933364
-0.025147
0.93996
0.0257566
-0.0244922
0.941238
-0.023795
0.942048
-0.0230621
0.943463
-0.0222775
0.94499
-0.0214452
0.946443
-0.0205622
0.947916
-0.0196286
0.949394
-0.018645
0.950985
-0.0176085
0.952651
-0.0165196
0.954418
-0.015376
0.956268
-0.0141785
0.958211
-0.0129127
0.969743
-0.0117165