/*--------------------------------*- C++ -*----------------------------------*\
| =========                 |                                                 |
| \\      /  F ield         | OpenFOAM: The Open Source CFD Toolbox           |
|  \\    /   O peration     | Version:  2.3.0                                 |
|   \\  /    A nd           | Web:      www.OpenFOAM.org                      |
|    \\/     M anipulation  |                                                 |
\*---------------------------------------------------------------------------*/
FoamFile
{
    version     2.0;
    format      ascii;
    class       surfaceScalarField;
    location    "0";
    object      phi;
}
// * * * * * * * * * * * * * * * * * * * * * * * * * * * * * * * * * * * * * //

dimensions      [0 3 -1 0 0 0 0];

internalField   nonuniform List<scalar> 
28014
(
67.5321
47.8143
65.1193
48.196
62.7111
48.1764
60.3044
48.1571
57.8985
48.1371
55.4936
48.1164
53.0893
48.0953
50.6856
48.0736
48.2825
48.0516
45.8799
48.0291
43.4777
48.0062
41.0759
47.9828
38.6745
47.9592
36.2733
47.9352
33.8725
47.9111
31.4719
47.8869
29.0714
47.8629
26.6709
47.8395
24.2704
47.8171
21.8697
47.7968
19.4687
47.78
17.0671
47.7694
14.6646
47.7704
12.4868
45.5889
10.7
38.2922
9.19616
31.864
7.92983
26.5385
6.86268
22.1284
5.96244
18.4776
5.20206
15.4559
4.55885
12.954
4.01393
10.88
3.55159
9.15724
3.15888
7.72189
2.82508
6.52183
2.54133
5.51493
2.30027
4.66742
2.0957
3.95223
1.92235
3.34746
1.77575
2.83522
1.65199
2.40076
1.54773
2.03185
1.46004
1.71836
1.38639
1.45185
1.32459
1.2253
1.27277
1.03283
1.22937
0.869457
1.19306
0.730957
0.616853
1.1636
66.6291
50.1754
64.2552
50.5699
61.8776
50.5541
59.5006
50.5341
57.1246
50.513
54.7495
50.4915
52.3753
50.4696
50.0016
50.4473
47.6284
50.4247
45.2557
50.4018
42.8835
50.3784
40.5116
50.3547
38.1401
50.3307
35.7689
50.3064
33.398
50.282
31.0272
50.2576
28.6566
50.2335
26.286
50.21
23.9154
50.1877
21.5447
50.1675
19.1736
50.1511
16.802
50.141
14.4295
50.1428
12.2924
47.7261
10.544
40.0405
9.07071
33.3373
7.8285
27.7807
6.78035
23.1766
5.89504
19.363
5.14635
16.2046
4.5123
13.5881
3.9745
11.4178
3.51772
9.61403
3.12933
8.11029
2.79888
6.85227
2.51775
5.79606
2.27874
4.90644
2.07577
4.1552
1.9037
3.51953
1.7581
2.98082
1.63515
2.52371
1.53151
2.13549
1.44429
1.80558
1.37096
1.52518
1.30936
1.2869
1.25764
1.08455
1.21421
0.912888
1.17772
0.767454
0.646663
1.14791
65.5228
52.4871
63.176
52.9166
60.835
52.8951
58.4966
52.8726
56.1594
52.8502
53.8232
52.8277
51.4877
52.8051
49.1528
52.7822
46.8183
52.7592
44.4844
52.7358
42.1508
52.712
39.8176
52.6879
37.4847
52.6636
35.1521
52.639
32.8197
52.6144
30.4876
52.5898
28.1555
52.5656
25.8235
52.542
23.4914
52.5198
21.1591
52.4998
18.8266
52.4836
16.4935
52.4741
14.1597
52.4766
12.07
49.8159
10.3657
41.7448
8.92771
34.7752
7.71387
28.9946
6.68843
24.202
5.8213
20.2301
5.08714
16.9388
4.46469
14.2105
3.93618
11.9463
3.48681
10.0634
3.10434
8.49276
2.77864
7.17798
2.5013
6.07339
2.26532
5.14242
2.06479
4.35573
1.89467
3.68965
1.75063
3.12486
1.62892
2.64543
1.52624
2.23816
1.43975
1.89207
1.36696
1.59797
1.30573
1.34813
1.25423
1.13605
1.21093
0.956189
1.17456
0.803819
0.675868
1.14536
64.6938
54.7697
62.3726
55.2378
60.0594
55.2084
57.7488
55.1831
55.4397
55.1592
53.1315
55.1359
50.8239
55.1127
48.5167
55.0894
46.2101
55.0658
43.9039
55.042
41.5981
55.0178
39.2926
54.9934
36.9875
54.9687
34.6827
54.9438
32.3781
54.919
30.0736
54.8942
27.7693
54.8699
25.4651
54.8463
23.1607
54.8241
20.8562
54.8043
18.5515
54.7884
16.2463
54.7793
13.9405
54.7825
11.8894
51.867
10.2221
43.4121
8.81359
36.1838
7.62301
30.1852
6.61591
25.2091
5.7632
21.0828
5.04033
17.6617
4.42669
14.8242
3.90502
12.468
3.46094
10.5075
3.08252
8.87117
2.75991
7.50058
2.48492
6.34838
2.2507
5.37663
2.05148
4.55494
1.88234
3.85879
1.73901
3.26818
1.6178
2.76664
1.51546
2.3405
1.42918
1.97835
1.35649
1.67066
1.29526
1.40936
1.24368
1.18764
1.2002
0.999661
1.16356
0.840458
0.705375
1.13406
55.7606
56.7538
53.7734
57.225
51.7836
57.1982
49.7952
57.1715
47.8074
57.147
45.8202
57.1231
43.8335
57.0995
41.8471
57.0758
39.8611
57.0518
37.8755
57.0276
35.8901
57.0032
33.905
56.9784
31.9202
56.9535
29.9357
56.9284
27.9513
56.9033
25.9671
56.8784
23.9829
56.854
21.9988
56.8304
20.0146
56.8083
18.0303
56.7886
16.0457
56.7729
14.0608
56.7642
12.0753
56.7679
10.3209
53.6214
8.90049
44.8325
7.69957
37.3847
6.68381
31.2009
5.82409
26.0688
5.09578
21.8111
4.47812
18.2793
3.95357
15.3487
3.50748
12.9141
3.12759
10.8874
2.80372
9.19504
2.52746
7.77684
2.29181
6.58403
2.09096
5.57749
1.91997
4.72593
1.77464
4.00411
1.65137
3.39146
1.54698
2.87102
1.45874
2.42874
1.38422
2.05287
1.32134
1.73354
1.26827
1.46243
1.22344
1.23247
1.18552
1.03758
1.15346
0.872519
0.731002
1.12783
45.8563
58.3594
44.2014
58.8799
42.5701
58.8294
40.9403
58.8013
39.3109
58.7765
37.6814
58.7525
36.0523
58.7286
34.4235
58.7045
32.7949
58.6804
31.1667
58.6558
29.5388
58.6311
27.9111
58.6062
26.2835
58.581
24.6562
58.5558
23.029
58.5305
21.4018
58.5056
19.7748
58.481
18.1478
58.4574
16.5208
58.4353
14.8936
58.4157
13.2663
58.4003
11.6387
58.3918
10.0107
58.3959
8.58166
55.0505
7.42951
45.9847
6.45514
38.359
5.63087
32.0252
4.93321
26.7665
4.34227
22.402
3.84121
18.7804
3.41583
15.7741
3.05415
13.2758
2.74623
11.1953
2.48374
9.45752
2.25981
8.00077
2.06873
6.7751
1.90576
5.74046
1.7669
4.86479
1.64876
4.12226
1.5484
3.49181
1.46329
2.95613
1.39121
2.50082
1.33022
2.11386
1.27865
1.78511
1.23504
1.50604
1.19809
1.26941
1.16663
1.06905
1.13958
0.89956
0.753266
1.11732
38.1697
59.737
36.8389
60.2107
35.4873
60.181
34.1329
60.1558
32.778
60.1314
31.4231
60.1074
30.0686
60.0832
28.7142
60.059
27.36
60.0345
26.0062
60.0097
24.6524
59.9849
23.299
59.9596
21.9457
59.9343
20.5926
59.9089
19.2396
59.8835
17.8868
59.8584
16.534
59.8338
15.1813
59.8101
13.8286
59.788
12.4759
59.7685
11.123
59.7531
9.77012
59.7447
8.41703
59.749
7.23744
56.2301
6.29067
46.9314
5.48986
39.1598
4.81243
32.7026
4.23917
27.3397
3.75379
22.8874
3.34245
19.1917
2.99345
16.1231
2.69691
13.5723
2.44457
11.4476
2.22954
9.67256
2.04611
8.18421
1.88956
6.93166
1.75596
5.87406
1.64203
4.97872
1.54498
4.21931
1.46242
3.57437
1.39227
3.02628
1.33273
2.56036
1.28223
2.16435
1.23944
1.82791
1.2032
1.54228
1.17256
1.30006
1.14648
1.09512
1.12321
0.922826
0.777108
1.09937
30.8065
60.8694
29.7549
61.2623
28.6698
61.2661
27.5814
61.2442
26.4925
61.2203
25.4037
61.1962
24.3149
61.1719
23.2263
61.1476
22.1378
61.123
21.0495
61.098
19.9614
61.073
18.8733
61.0477
17.7854
61.0222
16.6977
60.9966
15.61
60.9712
14.5224
60.946
13.4348
60.9214
12.3472
60.8977
11.2595
60.8757
10.1718
60.8562
9.08401
60.8409
7.99606
60.8327
6.9075
60.8375
5.96341
57.1741
5.20962
47.6852
4.57338
39.7961
4.03639
33.2396
3.58301
27.7931
3.19997
23.2705
2.87601
19.5157
2.60166
16.3975
2.36887
13.8051
2.17094
11.6456
2.00226
9.84123
1.85822
8.32825
1.73501
7.05486
1.62951
5.97956
1.53914
5.06909
1.46175
4.2967
1.39551
3.64061
1.33886
3.08293
1.29044
2.60879
1.24907
2.20572
1.21378
1.86321
1.18374
1.57232
1.15844
1.32535
1.13812
1.11544
1.12511
0.935833
1.09206
0.810156
1.10811
0.80922
1.05815
0.77676
1.00782
0.784258
0.957129
0.792208
0.906069
0.800723
0.854625
0.80988
0.802779
0.819766
0.75051
0.830485
0.697794
0.842158
0.644599
0.854939
0.590889
0.869013
0.536619
0.884615
0.481732
0.902044
0.425505
0.929921
0.374635
0.874025
0.328628
0.821108
0.287025
0.771166
0.249421
0.724181
0.215458
0.680111
0.184821
0.638899
0.157244
0.600469
0.132501
0.564739
0.531619
1.09111
0.866027
1.0404
0.827466
0.989425
0.835229
0.938152
0.843478
0.886548
0.852324
0.834595
0.861831
0.782272
0.872086
0.729562
0.883194
0.67644
0.895279
0.622882
0.908498
0.568855
0.923041
0.514319
0.939152
0.459222
0.957143
0.402835
0.986308
0.351964
0.924896
0.306075
0.866997
0.26468
0.812561
0.227344
0.761516
0.193692
0.713762
0.163399
0.669193
0.136182
0.627686
0.111806
0.589115
0.0900695
0.553355
0.52029
0.461863
1.08783
0.923558
1.03664
0.878657
0.985127
0.886743
0.93331
0.895292
0.881185
0.904444
0.828742
0.91427
0.775967
0.924858
0.722846
0.936314
0.66936
0.948766
0.615488
0.962371
0.561205
0.977325
0.506477
0.993882
0.451261
1.01236
0.394828
1.04274
0.344091
0.975633
0.298473
0.912615
0.257452
0.853583
0.220571
0.798397
0.187432
0.746901
0.157696
0.698929
0.131068
0.654314
0.107299
0.612884
0.0861766
0.574478
0.0675204
0.538946
0.0511771
0.506161
0.0370226
0.476017
0.0249623
0.448442
0.423382
1.07546
0.982161
1.02381
0.930307
0.971901
0.938654
0.919717
0.947473
0.867252
0.956905
0.814498
0.96702
0.761449
0.977905
0.708094
0.989668
0.65442
1.00244
0.600413
1.01638
0.546052
1.03169
0.491311
1.04862
0.436156
1.06752
0.379854
1.09904
0.329403
1.02608
0.284182
0.957836
0.243637
0.894128
0.207291
0.834744
0.174727
0.779465
0.145587
0.728069
0.119569
0.680332
0.0964126
0.636041
0.0759028
0.594988
0.057856
0.556994
0.0421293
0.521888
0.0286178
0.489529
0.0172625
0.459797
0.00804752
0.432597
0.407853
1.06852
1.04149
1.01653
0.982299
0.96419
0.990994
0.911559
1.0001
0.858658
1.0098
0.805494
1.02018
0.752069
1.03133
0.698384
1.04335
0.64443
1.05639
0.5902
1.07061
0.535679
1.08621
0.48085
1.10345
0.425688
1.12268
0.369459
1.15527
0.319239
1.0763
0.274366
1.00271
0.234257
0.934237
0.198406
0.870595
0.16638
0.811492
0.137809
0.75664
0.112376
0.705765
0.0898187
0.658599
0.0699111
0.614896
0.0524788
0.574426
0.0373798
0.536988
0.0245164
0.502393
0.0138262
0.470487
0.00528218
0.441141
-0.00112259
0.414258
0.389789
1.05807
1.10075
1.00598
1.03439
0.953448
1.04353
0.900588
1.05296
0.847458
1.06294
0.79409
1.07355
0.7405
1.08492
0.686694
1.09715
0.632676
1.1104
0.578443
1.12483
0.523988
1.14066
0.469299
1.15814
0.414361
1.17761
0.358441
1.21119
0.308676
1.12607
0.264353
1.04703
0.224864
0.973727
0.189682
0.905777
0.158356
0.842818
0.130501
0.784495
0.105795
0.730471
0.0839667
0.680427
0.0647902
0.634073
0.0480853
0.591132
0.033711
0.551362
0.0215612
0.514543
0.0115631
0.480486
0.00366666
0.449037
-0.00214842
0.420073
-0.00588606
0.393527
0.369378
1.04334
1.15677
0.991263
1.08647
0.938517
1.09628
0.885374
1.10612
0.831965
1.11635
0.778348
1.12717
0.724551
1.13871
0.67059
1.15111
0.616471
1.16452
0.562195
1.17911
0.507762
1.19509
0.453167
1.21273
0.398399
1.23238
0.342727
1.26686
0.293332
1.17546
0.249466
1.0909
0.210489
1.0127
0.175851
0.940414
0.14509
0.873579
0.117808
0.811777
0.093674
0.754605
0.0724094
0.701692
0.0537863
0.652697
0.0376197
0.607299
0.023764
0.565219
0.0121059
0.526201
0.00256834
0.490024
-0.00489429
0.4565
-0.0102939
0.425473
-0.0135814
0.396814
-0.0146313
0.370427
0.346214
1.05897
1.18986
1.00254
1.1429
0.946479
1.15236
0.890576
1.16203
0.834767
1.17217
0.779027
1.18291
0.723351
1.19439
0.667743
1.20672
0.612211
1.22005
0.556766
1.23455
0.501418
1.25043
0.446171
1.26797
0.391031
1.28752
0.335271
1.32262
0.286116
1.22461
0.242725
1.13429
0.20438
1.05105
0.170478
0.974315
0.140511
0.903547
0.114054
0.838233
0.0907535
0.777906
0.0703155
0.722131
0.0525046
0.670508
0.0371253
0.622679
0.0240247
0.57832
0.0130906
0.537135
0.00424081
0.498873
-0.0025627
0.463303
-0.00732066
0.430231
-0.00999622
0.39949
-0.0105261
0.370956
-0.00889694
0.344583
0.320399
33.309
62.0328
32.1069
62.4643
30.9265
62.4465
29.7465
62.4242
28.5662
62.4006
27.3858
62.3766
26.2054
62.3523
25.0252
62.3278
23.8453
62.3029
22.6653
62.278
21.4857
62.2526
20.3062
62.2271
19.1268
62.2016
17.9475
62.1759
16.7683
62.1504
15.5892
62.1251
14.4102
62.1004
13.2312
62.0767
12.0523
62.0546
10.8733
62.0351
9.69434
62.0199
8.51539
62.0117
7.33695
62.016
6.23109
58.28
5.31055
48.6058
4.54397
40.5627
3.90524
33.8784
3.37268
28.3257
2.92812
23.715
2.5564
19.8874
2.24485
16.709
1.98303
14.0669
1.76242
11.8662
1.57608
10.0276
1.41842
8.48591
1.2849
7.18838
1.17183
6.09264
1.0761
5.16482
0.99511
4.37769
0.926632
3.70909
0.868752
3.14082
0.819821
2.65772
0.778436
2.24711
0.74342
1.89823
0.713789
1.60195
0.688632
1.35051
0.666654
1.13741
0.644842
0.957642
0.883856
0.571139
33.3053
63.1967
32.1021
63.6676
30.9197
63.6289
29.7383
63.6056
28.5568
63.5821
27.3753
63.5581
26.1939
63.5337
25.0124
63.5092
23.8313
63.4841
22.6503
63.459
21.4694
63.4335
20.2887
63.4079
19.1081
63.3822
17.9277
63.3564
16.7473
63.3307
15.567
63.3054
14.3868
63.2806
13.2067
63.2569
12.0265
63.2348
10.8463
63.2153
9.66611
63.2001
8.48589
63.1919
7.3057
63.1962
6.19686
59.3888
5.27244
49.5302
4.50165
41.3334
3.85872
34.5213
3.32204
28.8624
2.87348
24.1636
2.49792
20.263
2.18276
17.0242
1.91757
14.3321
1.69386
12.0899
1.5047
10.2167
1.34452
8.64609
1.20877
7.32413
1.09372
6.20768
0.996267
5.26228
0.913752
4.4602
0.843908
3.77893
0.784775
3.19995
0.734678
2.70782
0.69219
2.28959
0.656108
1.93431
0.625399
1.63266
0.59911
1.3768
0.576434
1.16009
0.557384
0.976691
0.905611
0.535629
32.9414
64.4003
31.7963
64.8127
30.6262
64.7989
29.4546
64.7773
28.2827
64.754
27.1107
64.7301
25.9389
64.7056
24.7672
64.6808
23.5955
64.6558
22.4242
64.6303
21.2529
64.6048
20.0818
64.5789
18.9109
64.5531
17.74
64.5272
16.5692
64.5015
15.3985
64.476
14.2279
64.4513
13.0573
64.4275
11.8867
64.4054
10.716
64.3859
9.54537
64.3707
8.37468
64.3626
7.204
64.3669
6.10411
60.4887
5.18716
50.4471
4.42264
42.098
3.78494
35.159
3.25264
29.3947
2.80772
24.6085
2.4352
20.6355
2.12255
17.3368
1.85944
14.5952
1.63743
12.3119
1.44967
10.4045
1.29061
8.80515
1.15578
7.45896
1.04146
6.322
0.944571
5.35917
0.862464
4.54231
0.792873
3.84853
0.733849
3.25897
0.683721
2.75795
0.641084
2.33223
0.604756
1.97063
0.573749
1.66367
0.547266
1.40328
0.524776
1.18258
0.50598
0.995487
0.929712
0.481882
31.9099
65.551
30.7869
65.9357
29.6534
65.9325
28.5191
65.9116
27.3847
65.8884
26.2504
65.8644
25.1159
65.84
23.9817
65.815
22.8477
65.7898
21.7137
65.7644
20.5798
65.7386
19.4461
65.7127
18.3124
65.6868
17.1789
65.6608
16.0454
65.635
14.9119
65.6095
13.7784
65.5847
12.6449
65.561
11.5114
65.539
10.3778
65.5196
9.24401
65.5045
8.11016
65.4965
6.97622
65.5008
5.91075
61.5542
5.02241
51.3355
4.28158
42.8388
3.66351
35.7771
3.14741
29.9108
2.71587
25.0401
2.35433
20.997
2.05071
17.6405
1.79501
14.8509
1.57905
12.5279
1.39625
10.5873
1.24126
8.96014
1.10975
7.59047
0.998148
6.4336
0.903449
5.45387
0.823082
4.62268
0.754834
3.91677
0.696802
3.317
0.647366
2.80738
0.605175
2.37441
0.569114
2.00669
0.538288
1.69449
0.512021
1.42955
0.489826
1.20478
0.471339
1.01398
0.952114
0.448942
31.9491
66.6592
30.7809
67.1038
29.6433
67.0701
28.5074
67.0475
27.3717
67.0241
26.236
67.0002
25.1005
66.9755
23.965
66.9505
22.8297
66.9252
21.6945
66.8995
20.5594
66.8737
19.4244
66.8477
18.2896
66.8216
17.1549
66.7955
16.0202
66.7697
14.8855
66.7442
13.7509
66.7194
12.6162
66.6957
11.4815
66.6737
10.3467
66.6544
9.2118
66.6394
8.07684
66.6314
6.94181
66.6358
5.87537
62.6206
4.98627
52.2246
4.24491
43.5802
3.62645
36.3955
3.11013
30.4271
2.67846
25.4717
2.3169
21.3586
2.01329
17.9441
1.75762
15.1066
1.54172
12.7438
1.35896
10.7701
1.204
9.1151
1.07249
7.72198
0.960862
6.54523
0.866075
5.54866
0.785549
4.70321
0.717058
3.98527
0.658693
3.37537
0.608847
2.85722
0.566193
2.41706
0.529656
2.04322
0.498385
1.72576
0.471689
1.45624
0.448938
1.22753
0.429428
1.03349
0.975618
0.40593
31.9113
67.8016
30.7787
68.2364
29.6417
68.2071
28.5049
68.1843
27.3682
68.1608
26.2316
68.1367
25.095
68.1121
23.9586
68.087
22.8223
68.0615
21.6861
68.0357
20.5502
68.0097
19.4143
67.9836
18.2785
67.9574
17.1428
67.9313
16.0071
67.9053
14.8716
67.8798
13.736
67.8549
12.6004
67.8312
11.4648
67.8093
10.3291
67.7901
9.19334
67.7751
8.05753
67.7673
6.92166
67.7717
5.85446
63.6878
4.96479
53.1142
4.22302
44.3219
3.60432
37.0142
3.08784
30.9436
2.65614
25.9034
2.2946
21.7202
1.99107
18.2476
1.73552
15.3622
1.51972
12.9596
1.33706
10.9527
1.18218
9.26998
1.05071
7.85344
0.939057
6.65688
0.84418
5.64354
0.763475
4.78391
0.694704
4.05404
0.635963
3.43411
0.585664
2.90752
0.542512
2.46021
0.505473
2.08025
0.47372
1.75751
0.446566
1.4834
0.423413
1.25068
0.403803
1.0531
0.997374
0.382054
30.9175
68.9369
29.8401
69.3137
28.7391
69.3082
27.6369
69.2864
26.5349
69.2628
25.433
69.2386
24.3313
69.2138
23.2296
69.1886
22.128
69.163
21.0265
69.1373
19.9251
69.1111
18.8237
69.0849
17.7225
69.0586
16.6214
69.0323
15.5203
69.0064
14.4192
68.9809
13.3181
68.9561
12.2169
68.9324
11.1156
68.9106
10.0142
68.8914
8.9127
68.8766
7.81106
68.8689
6.70929
68.8735
5.67406
64.7231
4.811
53.9773
4.09132
45.0416
3.49092
37.6146
2.98962
31.4449
2.57046
26.3226
2.21928
22.0713
1.92432
18.5426
1.67579
15.6107
1.4658
13.1696
1.28792
11.1306
1.13696
9.42094
1.00872
7.98169
0.899689
6.76592
0.806908
5.73632
0.727836
4.86298
0.660288
4.12159
0.602422
3.49197
0.552714
2.95722
0.509944
2.50297
0.473138
2.11705
0.441518
1.78913
0.414432
1.51048
0.391328
1.27379
0.371771
1.07266
1.01983
0.349322
30.4782
70.0114
29.3762
70.4157
28.2892
70.3951
27.2036
70.372
26.1181
70.3484
25.0327
70.324
23.9474
70.2991
22.8622
70.2738
21.7771
70.2481
20.6922
70.2222
19.6074
70.1959
18.5226
70.1697
17.4379
70.1433
16.3532
70.117
15.2685
70.0911
14.1839
70.0655
13.0992
70.0408
12.0144
70.0172
10.9295
69.9954
9.84452
69.9764
8.75938
69.9618
7.6741
69.9542
6.58868
69.9589
5.56882
65.7429
4.71858
54.8275
4.00959
45.7506
3.41811
38.2061
2.92428
31.9388
2.51135
26.7355
2.16538
22.4173
1.87472
18.8332
1.62981
15.8556
1.42283
13.3766
1.24742
11.306
1.09851
9.56985
0.97193
8.10826
0.86423
6.87362
0.772469
5.82808
0.694127
4.94133
0.62705
4.18866
0.569433
3.54959
0.519806
3.00684
0.477
2.54577
0.440088
2.15396
0.408314
1.8209
0.381016
1.53778
0.35755
1.29725
0.33721
1.093
1.04206
0.31499
30.4836
71.077
29.3714
71.528
28.2835
71.483
27.1973
71.4583
26.1115
71.4342
25.0256
71.4099
23.94
71.3848
22.8544
71.3594
21.769
71.3336
20.6837
71.3075
19.5984
71.2812
18.5133
71.2548
17.4282
71.2284
16.3432
71.2021
15.2582
71.1761
14.1732
71.1505
13.0881
71.1258
12.003
71.1023
10.9178
71.0806
9.8325
71.0618
8.74705
71.0472
7.66147
71.0398
6.57576
71.0446
5.55565
66.763
4.70524
55.6779
3.99618
46.4596
3.40472
38.7975
2.91095
32.4325
2.49816
27.1483
2.15235
22.7631
1.8619
19.1237
1.61718
16.1003
1.41036
13.5834
1.23511
11.4813
1.08629
9.71867
0.959745
8.23481
0.851983
6.98138
0.76005
5.92001
0.681417
5.01996
0.613935
4.25614
0.555826
3.60769
0.505657
3.05701
0.462298
2.58913
0.424857
2.1914
0.392595
1.85315
0.364881
1.56549
0.341183
1.32095
0.321171
1.11301
1.06198
0.301254
30.2742
72.188
29.2185
72.5836
28.1386
72.5629
27.0571
72.5397
25.9756
72.5157
24.8943
72.4911
23.8131
72.466
22.732
72.4404
21.6511
72.4145
20.5703
72.3883
19.4895
72.3619
18.4088
72.3355
17.3282
72.309
16.2476
72.2826
15.1671
72.2566
14.0866
72.2311
13.006
72.2064
11.9254
72.1829
10.8447
72.1614
9.76384
72.1426
8.68289
72.1282
7.60184
72.1209
6.52067
72.1258
5.50485
67.7789
4.65808
56.5247
3.95213
47.1656
3.36333
39.3863
2.87185
32.924
2.46103
27.5591
2.11695
23.1072
1.82797
19.4127
1.58453
16.3438
1.37879
13.7891
1.20442
11.6556
1.05632
9.86676
0.930316
8.36081
0.822921
7.08877
0.731177
6.01175
0.652563
5.09857
0.584947
4.32375
0.526588
3.66605
0.476099
3.10749
0.432396
2.63283
0.394617
2.22917
0.362059
1.88571
0.334123
1.59343
0.310324
1.34475
0.290282
1.13305
1.08361
0.268659
28.9034
73.2457
27.8914
73.5957
26.8608
73.5935
25.829
73.5716
24.7971
73.5476
23.7655
73.5228
22.7339
73.4976
21.7023
73.4719
20.6708
73.446
19.6396
73.4196
18.6083
73.3932
17.5771
73.3667
16.5459
73.3401
15.5147
73.3138
14.4834
73.2879
13.4522
73.2624
12.4208
73.2378
11.3893
73.2144
10.3576
73.193
9.32575
73.1744
8.29369
73.1602
7.26141
73.1532
6.22894
73.1583
5.2588
68.749
4.44999
57.3335
3.77553
47.84
3.21285
39.949
2.74298
33.3939
2.35003
27.9521
2.02069
23.4365
1.74386
19.6895
1.51042
16.5772
1.31291
13.9866
1.14533
11.8232
1.00281
10.0093
0.881384
8.48225
0.777703
7.19246
0.688932
6.10053
0.612651
5.17485
0.546835
4.38957
0.489847
3.72304
0.440404
3.15693
0.397512
2.67572
0.360379
2.2663
0.328341
1.91774
0.300799
1.62097
0.277125
1.36842
0.256545
1.15363
1.1043
0.235854
28.948
74.2552
27.8869
74.6567
26.8529
74.6276
25.8207
74.6038
24.7887
74.5795
23.7567
74.5547
22.7251
74.5293
21.6933
74.5037
20.6619
74.4775
19.6303
74.4512
18.5989
74.4247
17.5676
74.398
16.5363
74.3715
15.5049
74.3452
14.4737
74.3191
13.4423
74.2938
12.4108
74.2692
11.3792
74.246
10.3475
74.2248
9.31555
74.2063
8.28344
74.1923
7.25118
74.1854
6.21872
74.1907
5.24863
69.7191
4.43993
58.1422
3.76566
48.5143
3.20322
40.5114
2.73367
33.8634
2.34109
28.3446
2.01212
23.7655
1.73572
19.9659
1.5027
16.8102
1.30559
14.1838
1.13834
11.9905
0.996083
10.1515
0.874806
8.60352
0.771151
7.29611
0.682267
6.18941
0.605741
5.25138
0.539575
4.45573
0.482179
3.78043
0.432319
3.20679
0.389038
2.719
0.351572
2.30376
0.319263
1.95005
0.291522
1.64871
0.267832
1.39211
0.24788
1.17358
1.12142
0.230765
28.9213
75.2876
27.8829
75.6951
26.849
75.6614
25.8158
75.637
24.7829
75.6125
23.7501
75.5875
22.7174
75.562
21.685
75.5361
20.6524
75.51
19.6201
75.4835
18.5879
75.4568
17.5557
75.4303
16.5235
75.4036
15.4914
75.3773
14.4592
75.3513
13.427
75.326
12.3946
75.3015
11.3622
75.2785
10.3296
75.2573
9.29691
75.2391
8.26401
75.2252
7.23095
75.2185
6.19773
75.2239
5.22694
70.6899
4.41773
58.9514
3.74308
49.189
3.18041
41.0741
2.71075
34.3331
2.31813
28.7373
1.98925
24.0944
1.71293
20.2422
1.48001
17.0432
1.283
14.3808
1.11582
12.1576
0.973571
10.2938
0.852218
8.72488
0.748389
7.39994
0.659225
6.27857
0.582324
5.32828
0.515719
4.52233
0.457863
3.83828
0.407566
3.25709
0.363903
2.76266
0.326125
2.34154
0.293581
1.98259
0.265691
1.6766
0.241936
1.41587
0.221822
1.1937
1.14062
0.202619
28.0466
76.3218
27.0654
76.6763
26.0633
76.6635
25.0606
76.6397
24.058
76.615
23.0556
76.59
22.0532
76.5643
21.051
76.5383
20.0489
76.5121
19.0469
76.4855
18.0447
76.4589
17.0428
76.4322
16.0408
76.4057
15.0389
76.3792
14.0368
76.3534
13.0347
76.328
12.0325
76.3038
11.0301
76.2808
10.0276
76.2599
9.0248
76.2418
8.02182
76.2282
7.01863
76.2217
6.01524
76.2273
5.07246
71.6327
4.28653
59.7373
3.63126
49.8442
3.08468
41.6207
2.62838
34.7894
2.24685
29.1188
1.92715
24.4141
1.65843
20.5109
1.4318
17.2698
1.23999
14.5726
1.07708
12.3206
0.938319
10.4325
0.819784
8.84341
0.718185
7.50154
0.63074
6.36601
0.555134
5.40388
0.489495
4.58797
0.432366
3.89541
0.382641
3.30681
0.339459
2.80584
0.302104
2.3789
0.269952
2.01475
0.242417
1.70413
0.218937
1.43935
0.198931
1.2137
1.15821
0.181343
27.3102
77.2963
26.3272
77.6592
25.3512
77.6396
24.376
77.6149
23.4008
77.5902
22.426
77.5648
21.4513
77.5391
20.4764
77.5131
19.5019
77.4866
18.5273
77.4602
17.5528
77.4334
16.5783
77.4067
15.6038
77.3802
14.6291
77.3539
13.6545
77.328
12.6798
77.3028
11.7049
77.2787
10.7298
77.2559
9.75455
77.2352
8.77901
77.2173
7.80325
77.204
6.82724
77.1977
5.851
77.2036
4.93367
72.55
4.16896
60.502
3.53134
50.4818
2.99945
42.1525
2.55536
35.2335
2.18399
29.4902
1.8727
24.7254
1.611
20.7726
1.39017
17.4906
1.20315
14.7596
1.0442
12.4795
0.908681
10.5681
0.792755
8.95935
0.693217
7.60108
0.607364
6.45187
0.532964
5.47828
0.468236
4.6527
0.411821
3.95182
0.362687
3.35595
0.320024
2.84851
0.283149
2.41577
0.251439
2.04646
0.224309
1.73126
0.201185
1.46247
0.181539
1.23335
1.17428
0.165464
27.3242
78.2529
26.3212
78.6621
25.344
78.6168
24.3683
78.5906
23.3928
78.5656
22.4174
78.5402
21.4422
78.5143
20.4672
78.4881
19.4921
78.4617
18.5172
78.435
17.5423
78.4084
16.5673
78.3816
15.5924
78.3551
14.6176
78.3288
13.6425
78.303
12.6674
78.278
11.6921
78.2539
10.7167
78.2313
9.741
78.2108
8.76511
78.1932
7.78898
78.1801
6.81262
78.1741
5.83604
78.1802
4.91843
73.4676
4.15349
61.267
3.51575
51.1196
2.9838
42.6845
2.53973
35.6776
2.16843
29.8615
1.85728
25.0365
1.59569
21.0342
1.375
17.7113
1.18808
14.9465
1.02918
12.6384
0.893622
10.7036
0.777555
9.07541
0.677764
7.70087
0.591558
6.53807
0.516741
5.55309
0.451583
4.71785
0.394773
4.00863
0.345317
3.4054
0.30242
2.89141
0.265395
2.4528
0.233609
2.07825
0.206457
1.75842
0.183393
1.48554
0.163966
1.25277
1.18984
0.148396
27.2748
79.2548
26.3194
79.6175
25.3441
79.5921
24.3676
79.5672
23.3911
79.5421
22.4148
79.5165
21.4385
79.4906
20.4623
79.4643
19.4862
79.4378
18.5102
79.4111
17.5343
79.3842
16.5583
79.3576
15.5824
79.331
14.6064
79.3048
13.6304
79.279
12.6543
79.2541
11.678
79.2302
10.7015
79.2078
9.72489
79.1875
8.74802
79.1701
7.77091
79.1572
6.79361
79.1514
5.8161
79.1577
4.89764
74.3861
4.13206
62.0326
3.49385
51.7578
2.96162
43.2167
2.51737
36.1218
2.14604
30.2328
1.83491
25.3477
1.57343
21.2957
1.35283
17.9319
1.16601
15.1334
1.00716
12.7973
0.871563
10.8392
0.755374
9.1916
0.655366
7.80088
0.568865
6.62457
0.493712
5.62825
0.428227
4.78333
0.371145
4.06572
0.321499
3.45505
0.278502
2.93441
0.241454
2.48985
0.209696
2.11001
0.182591
1.78552
0.159515
1.50861
0.139795
1.27249
1.20534
0.124288
25.6685
80.2052
24.7741
80.5119
23.8579
80.5083
22.9398
80.4852
22.0218
80.46
21.1039
80.4344
20.1861
80.4084
19.2683
80.3821
18.3506
80.3555
17.433
80.3287
16.5152
80.302
15.5976
80.2752
14.6798
80.2488
13.7621
80.2225
12.8441
80.197
11.9258
80.1723
11.0075
80.1485
10.089
80.1264
9.17009
80.1063
8.25091
80.0893
7.33143
80.0767
6.41163
80.0712
5.49151
80.0778
4.6269
75.2507
3.90608
62.7534
3.30501
52.3589
2.80357
43.7182
2.38483
36.5406
2.03457
30.583
1.74084
25.6414
1.49371
21.5428
1.28496
18.1406
1.1079
15.3104
0.95708
12.9481
0.828104
10.9682
0.717327
9.30238
0.621719
7.89649
0.538785
6.7075
0.466538
5.70049
0.403453
4.84641
0.348405
4.12076
0.300521
3.50294
0.259079
2.97585
0.223415
2.52552
0.192882
2.14054
0.166849
1.81156
0.144715
1.53075
0.125943
1.29126
1.21821
0.113068
25.6326
81.106
24.6934
81.4511
23.7762
81.4255
22.8605
81.4009
21.9448
81.3757
21.0292
81.35
20.1138
81.3238
19.1985
81.2974
18.2832
81.2708
17.368
81.244
16.4527
81.2173
15.5374
81.1905
14.6222
81.164
13.7067
81.138
12.7911
81.1126
11.8755
81.0879
10.9595
81.0645
10.0434
81.0425
9.12693
81.0228
8.21019
81.006
7.29314
80.9937
6.3758
80.9886
5.45818
80.9954
4.59592
76.113
3.87711
63.4722
3.27778
52.9582
2.77784
44.2181
2.36043
36.958
2.01134
30.9321
1.71865
25.9341
1.47243
21.7891
1.26446
18.3486
1.08803
15.4869
0.937705
13.0984
0.809057
11.0968
0.698456
9.41298
0.602889
7.99206
0.519899
6.79049
0.447553
5.77284
0.384391
4.90958
0.329324
4.17583
0.281505
3.55076
0.240206
3.01715
0.204743
2.56099
0.17445
2.17084
0.148682
1.83733
0.12683
1.5526
0.108347
1.30974
1.23102
0.0955332
25.6167
82.0185
24.6886
82.3791
23.7713
82.3428
22.8549
82.3173
21.9388
82.2919
21.0228
82.266
20.1068
82.2398
19.191
82.2132
18.2752
82.1865
17.3594
82.1598
16.4438
82.1329
15.5281
82.1062
14.6123
82.0799
13.6963
82.0539
12.7803
82.0286
11.8642
82.0041
10.9478
81.9809
10.0311
81.9592
9.11421
81.9397
8.19699
81.9232
7.27948
81.9113
6.36168
81.9064
5.44358
81.9135
4.58086
76.9757
3.86168
64.1914
3.26209
53.5578
2.76198
44.7182
2.34447
37.3755
1.99531
31.2813
1.70262
26.2268
1.4564
22.0353
1.24842
18.5566
1.07196
15.6633
0.921549
13.2488
0.792733
11.2257
0.681876
9.52384
0.585983
8.08795
0.502634
6.87383
0.42995
5.84552
0.366521
4.973
0.311292
4.23106
0.263423
3.59863
0.222176
3.0584
0.186846
2.59632
0.156743
2.20094
0.131213
1.86286
0.109648
1.57416
0.0914962
1.3279
1.2433
0.0792064
24.9192
82.9408
24.0457
83.2526
23.1538
83.2347
22.2612
83.2099
21.3688
83.1843
20.4765
83.1584
19.5843
83.1319
18.6921
83.1054
17.8001
83.0786
16.908
83.0519
16.016
83.0249
15.1238
82.9983
14.2317
82.972
13.3395
82.9462
12.447
82.9211
11.5544
82.8967
10.6615
82.8738
9.76841
82.8523
8.87496
82.8331
7.98119
82.817
7.08708
82.8054
6.19265
82.8008
5.2979
82.8083
4.45709
77.8165
3.75615
64.8923
3.17171
54.1422
2.68419
45.2057
2.27713
37.7826
1.93668
31.6217
1.65117
26.5123
1.4109
22.2755
1.20784
18.7597
1.03541
15.8358
0.888273
13.396
0.762105
11.3518
0.653355
9.63259
0.55913
8.18218
0.477116
6.95585
0.405541
5.91709
0.343087
5.03546
0.288763
4.28538
0.241764
3.64563
0.201356
3.09881
0.166835
2.63084
0.137513
2.23027
0.112739
1.88763
0.091934
1.59497
0.0746002
1.34523
1.25498
0.0629075
23.8559
83.8038
23.0031
84.1055
22.1494
84.0884
21.2958
84.0635
20.4423
84.0378
19.589
84.0116
18.7357
83.9853
17.8825
83.9586
17.0293
83.9318
16.1762
83.9049
15.323
83.8782
14.4697
83.8517
13.6162
83.8254
12.7627
83.7997
11.9091
83.7747
11.055
83.7507
10.2008
83.728
9.34624
83.7069
8.49132
83.688
7.63601
83.6723
6.78032
83.6611
5.92423
83.6569
5.06777
83.6647
4.26288
78.6214
3.5918
65.5634
3.03217
54.7018
2.56525
45.6726
2.17524
38.1726
1.84888
31.9481
1.57504
26.7861
1.34438
22.5062
1.14922
18.9548
0.983282
16.0017
0.841467
13.5378
0.719629
11.4737
0.614401
9.73782
0.523036
8.27354
0.443372
7.03551
0.373777
5.98669
0.313046
5.09618
0.26027
4.33816
0.214686
3.69121
0.175587
3.13791
0.142276
2.66416
0.11407
2.25848
0.0903239
1.91138
0.0704409
1.61485
0.0538534
1.36182
1.26608
0.0427481
23.8747
84.6437
22.997
84.9832
22.1415
84.9439
21.2875
84.9176
20.4337
84.8916
19.5798
84.8654
18.7262
84.8389
17.8727
84.8121
17.0191
84.7854
16.1655
84.7585
15.3119
84.7317
14.4583
84.7053
13.6044
84.6792
12.7506
84.6536
11.8965
84.6288
11.0421
84.6051
10.1875
84.5826
9.33249
84.5619
8.47718
84.5433
7.62149
84.528
6.7654
84.5171
5.90894
84.5134
5.05209
84.5216
4.24683
79.4266
3.57546
66.2348
3.01563
55.2617
2.54854
46.1397
2.15846
38.5627
1.83208
32.2745
1.55824
27.06
1.32759
22.7368
1.13244
19.15
0.966467
16.1677
0.824544
13.6797
0.702543
11.5957
0.597086
9.84328
0.505465
8.36516
0.425568
7.11541
0.355817
6.05644
0.295041
5.15696
0.242348
4.39085
0.196962
3.7366
0.158151
3.17673
0.125189
2.69712
0.097369
2.2863
0.0740022
1.93475
0.054429
1.63443
0.0379766
1.37827
1.27612
0.0279348
23.8378
85.5163
22.9943
85.8267
22.1404
85.7978
21.286
85.772
20.4317
85.7459
19.5775
85.7196
18.7235
85.693
17.8693
85.6662
17.0155
85.6393
16.1615
85.6125
15.3074
85.5858
14.4535
85.5593
13.5993
85.5333
12.7449
85.508
11.8904
85.4834
11.0356
85.4599
10.1806
85.4376
9.32523
85.4172
8.46951
85.399
7.61339
85.3841
6.75691
85.3736
5.90004
85.3703
5.0428
85.3788
4.23716
80.2323
3.56549
66.9064
3.00544
55.8217
2.53824
46.6069
2.14811
38.9528
1.82174
32.6009
1.54793
27.3338
1.31737
22.9674
1.12228
19.3451
0.95636
16.3336
0.814454
13.8216
0.692399
11.7177
0.586844
9.94883
0.495115
8.45689
0.415152
7.19537
0.345428
6.12616
0.284806
5.21758
0.232395
4.44326
0.187401
3.78159
0.149061
3.21507
0.116618
2.72957
0.0893274
2.31359
0.0664786
1.9576
0.0474071