/*--------------------------------*- C++ -*----------------------------------*\
| =========                 |                                                 |
| \\      /  F ield         | OpenFOAM: The Open Source CFD Toolbox           |
|  \\    /   O peration     | Version:  2.3.0                                 |
|   \\  /    A nd           | Web:      www.OpenFOAM.org                      |
|    \\/     M anipulation  |                                                 |
\*---------------------------------------------------------------------------*/
FoamFile
{
    version     2.0;
    format      ascii;
    class       volVectorField;
    location    "0";
    object      U;
}
// * * * * * * * * * * * * * * * * * * * * * * * * * * * * * * * * * * * * * //

dimensions      [0 1 -1 0 0 0 0];

internalField   nonuniform List<vector> 
14137
(
(99.6148 6.24524e-16 4.64617)
(99.7812 -1.24536e-15 4.97579)
(99.7737 -6.15768e-16 4.96785)
(99.7689 -1.90636e-15 4.95733)
(99.7647 1.34457e-17 4.94556)
(99.761 -6.28605e-16 4.93286)
(99.7579 0 4.91936)
(99.7552 0 4.90516)
(99.7529 3.27165e-17 4.89028)
(99.7509 3.07018e-16 4.87474)
(99.7493 -3.20165e-16 4.85855)
(99.7481 1.28652e-15 4.8417)
(99.7471 3.06503e-16 4.8242)
(99.7466 -3.19756e-16 4.80607)
(99.7464 -6.58685e-16 4.78733)
(99.7465 8.11245e-16 4.76804)
(99.7471 1.83795e-19 4.74831)
(99.7479 1.13004e-15 4.7283)
(99.7491 7.61328e-17 4.70829)
(99.7504 7.33299e-16 4.68876)
(99.7517 0 4.67052)
(99.7529 -6.56741e-16 4.65501)
(99.7537 3.76121e-17 4.64504)
(99.753 -5.86518e-16 4.64362)
(99.7474 -2.93215e-16 4.6528)
(99.7352 -3.10013e-16 4.67952)
(99.7145 -3.31251e-16 4.72917)
(99.6833 1.55718e-16 4.80714)
(99.6393 0 4.92029)
(99.5804 7.94523e-17 5.07681)
(99.505 4.00457e-17 5.28627)
(99.4118 -8.04875e-17 5.55935)
(99.3008 2.44988e-18 5.90739)
(99.1737 2.17748e-17 6.34167)
(99.0343 1.10477e-17 6.87218)
(98.8895 1.12242e-17 7.50626)
(98.7492 5.981e-19 8.24694)
(98.6259 -5.21329e-18 9.09146)
(98.5335 -2.83003e-18 10.03)
(98.4856 5.89704e-18 11.0455)
(98.4931 0 12.1144)
(98.5624 0 13.2086)
(98.6936 7.94836e-19 14.2983)
(98.8813 0 15.3555)
(99.1153 4.10543e-19 16.3561)
(99.3827 2.00263e-19 17.2819)
(99.6702 0 18.1212)
(99.9665 -2.64387e-19 18.8679)
(100.471 -3.72809e-19 19.8327)
(99.5853 8.13276e-17 4.63613)
(99.7687 0 4.98205)
(99.7668 -6.07482e-16 4.97136)
(99.7619 -5.75242e-16 4.96019)
(99.7573 1.30091e-15 4.9479)
(99.7533 6.07111e-16 4.93475)
(99.75 -6.93268e-16 4.92089)
(99.7472 1.29942e-15 4.9064)
(99.7449 5.7422e-16 4.89128)
(99.7429 6.92412e-16 4.87553)
(99.7413 3.02787e-16 4.85916)
(99.74 6.5977e-16 4.84216)
(99.7391 -9.94146e-16 4.82452)
(99.7386 3.02197e-16 4.80627)
(99.7385 -3.56414e-16 4.78743)
(99.7389 1.34889e-15 4.76808)
(99.7396 -1.50653e-16 4.74832)
(99.7407 1.34742e-15 4.72833)
(99.7422 1.50467e-16 4.70839)
(99.7439 5.82173e-16 4.689)
(99.7458 6.88939e-16 4.67098)
(99.7477 -5.07446e-16 4.65578)
(99.7498 1.11602e-16 4.64618)
(99.7513 -1.78927e-19 4.64487)
(99.7495 6.71167e-16 4.65425)
(99.7422 -3.10291e-16 4.68153)
(99.7271 -1.64908e-16 4.73219)
(99.7026 3.29309e-16 4.81162)
(99.6668 7.7503e-17 4.92668)
(99.6184 0 5.08556)
(99.5562 0 5.29776)
(99.4799 -8.70852e-17 5.5738)
(99.3904 -2.25236e-17 5.92475)
(99.2903 2.18052e-17 6.36144)
(99.1844 7.01709e-19 6.89323)
(99.0804 1.36447e-17 7.52654)
(98.9886 1.19208e-18 8.2633)
(98.9214 -5.824e-18 9.09943)
(98.8921 -5.81478e-19 10.0238)
(98.9129 -7.03652e-19 11.0183)
(98.9928 -5.67758e-19 12.0586)
(99.1354 1.06394e-18 13.1168)
(99.3387 7.973e-19 14.1639)
(99.5947 0 15.1735)
(99.8909 -1.579e-20 16.1235)
(100.213 0 16.9977)
(100.546 -2.19416e-19 17.7862)
(100.876 2.6363e-19 18.486)
(101.357 4.26178e-20 19.324)
(99.5639 2.0071e-15 4.62208)
(99.7688 5.97703e-16 4.98332)
(99.7588 -7.26072e-16 4.97621)
(99.7521 6.94065e-16 4.96462)
(99.7471 1.41932e-15 4.95154)
(99.7432 0 4.93771)
(99.7401 -8.21721e-16 4.92331)
(99.7375 1.28947e-15 4.90834)
(99.7355 3.17403e-17 4.89281)
(99.7338 -3.29596e-16 4.87667)
(99.7326 -2.97878e-16 4.85992)
(99.7317 -2.97525e-16 4.84253)
(99.7314 -6.91683e-16 4.82452)
(99.7314 2.9736e-16 4.80589)
(99.732 7.22581e-16 4.78667)
(99.7331 1.41279e-15 4.76693)
(99.7347 0 4.74678)
(99.7369 1.55945e-15 4.72639)
(99.7395 8.69287e-16 4.70605)
(99.7427 0 4.68626)
(99.7464 6.89104e-16 4.66782)
(99.7506 6.47479e-16 4.65216)
(99.7555 -3.6793e-17 4.64204)
(99.7589 -1.95056e-19 4.64118)
(99.7571 1.37442e-15 4.65277)
(99.7497 0 4.68294)
(99.7361 9.43229e-18 4.73645)
(99.715 1.82971e-16 4.81862)
(99.6854 8.71529e-17 4.93623)
(99.6462 0 5.09739)
(99.5971 0 5.31145)
(99.5385 -4.69941e-17 5.58873)
(99.4721 -2.49485e-17 5.94)
(99.4011 0 6.37562)
(99.3309 -2.36685e-17 6.90436)
(99.2696 0 7.53187)
(99.2274 -1.17852e-18 8.25912)
(99.2161 -1.17379e-18 9.08097)
(99.2479 0 9.98531)
(99.3333 -3.15434e-18 10.9532)
(99.4791 0 11.96)
(99.6868 1.07442e-18 12.9782)
(99.952 3.03786e-19 13.9801)
(100.265 0 14.9409)
(100.612 -8.71822e-19 15.8407)
(100.977 2.68295e-19 16.6653)
(101.345 4.85055e-20 17.4061)
(101.706 -2.30016e-19 18.0595)
(102.173 3.36322e-20 18.7437)
(99.5385 1.31031e-15 4.6035)
(99.768 1.93782e-15 4.9924)
(99.7535 6.21172e-16 4.98079)
(99.7456 5.89568e-16 4.9673)
(99.7403 2.07181e-15 4.95323)
(99.7363 0 4.93883)
(99.733 -5.5772e-16 4.92406)
(99.7303 -2.76424e-19 4.90886)
(99.7281 1.31309e-15 4.89315)
(99.7263 -7.24062e-16 4.87688)
(99.7249 7.54981e-16 4.86004)
(99.7239 -7.54679e-16 4.8426)
(99.7233 1.04791e-15 4.82456)
(99.7232 1.04763e-15 4.80594)
(99.7236 7.22526e-16 4.78678)
(99.7245 7.22213e-16 4.76715)
(99.7259 7.53136e-16 4.74717)
(99.7279 7.21601e-16 4.72703)
(99.7304 7.21313e-16 4.70705)
(99.7333 0 4.68776)
(99.7367 0 4.66999)
(99.7406 7.20688e-16 4.65523)
(99.7451 -7.51934e-16 4.64629)
(99.7508 7.52167e-16 4.64545)
(99.7561 1.47414e-15 4.65516)
(99.7583 3.76819e-16 4.68285)
(99.7551 -3.68239e-16 4.73413)
(99.7456 9.3227e-18 4.8143)
(99.7289 0 4.93013)
(99.7046 0 5.08973)
(99.6726 0 5.30235)
(99.634 0 5.57816)
(99.5909 -2.38661e-18 5.92764)
(99.5472 -2.60169e-17 6.36069)
(99.5089 4.85815e-19 6.88542)
(99.4845 1.04049e-17 7.50654)
(99.4843 -1.17509e-18 8.22388)
(99.5201 0 9.03104)
(99.6031 -5.74661e-19 9.91471)
(99.7426 -5.72674e-19 10.855)
(99.9438 -5.62518e-19 11.8272)
(100.206 -5.61018e-19 12.804)
(100.524 1.41323e-18 13.759)
(100.885 4.7694e-21 14.6696)
(101.275 -1.448e-18 15.5183)
(101.678 0 16.2936)
(102.076 0 16.9886)
(102.458 -4.67893e-19 17.6007)
(102.865 1.45492e-19 18.1296)
(99.4991 -5.78727e-16 4.60553)
(99.7459 7.57663e-16 5.00811)
(99.7393 7.5731e-16 4.98932)
(99.7327 -1.36199e-15 4.97304)
(99.7282 1.7859e-16 4.95761)
(99.7248 0 4.94239)
(99.7221 1.53916e-15 4.92701)
(99.7198 -2.88591e-16 4.91129)
(99.7181 -2.88614e-16 4.89509)
(99.7167 -7.82176e-16 4.87835)
(99.7158 7.5493e-16 4.86103)
(99.7154 -1.24824e-15 4.84311)
(99.7155 1.04231e-15 4.82457)
(99.7162 1.53497e-15 4.80544)
(99.7174 6.37029e-16 4.78574)
(99.7193 -1.43646e-16 4.76555)
(99.7219 7.53082e-16 4.74499)
(99.7251 7.79749e-16 4.72425)
(99.7291 -7.14062e-17 4.70365)
(99.7339 6.36553e-16 4.68369)
(99.7394 7.07752e-16 4.66523)
(99.7457 0 4.64975)
(99.753 6.21945e-17 4.64011)
(99.7597 -9.47205e-18 4.63977)
(99.7632 -4.46838e-17 4.65235)
(99.7635 3.67775e-16 4.68368)
(99.7603 -3.95831e-16 4.73821)
(99.7528 -9.15223e-18 4.82114)
(99.7409 0 4.93917)
(99.7245 4.67543e-18 5.10025)
(99.7041 4.66915e-18 5.31346)
(99.6814 4.78959e-17 5.58872)
(99.6591 -2.34638e-18 5.93609)
(99.6417 -2.36761e-17 6.36497)
(99.6357 7.56526e-19 6.88273)
(99.6495 1.39465e-17 7.49323)
(99.6934 -4.95923e-18 8.19533)
(99.7784 1.14979e-18 8.98165)
(99.9144 4.59632e-18 9.83809)
(100.109 5.66838e-19 10.7444)
(100.365 0 11.6758)
(100.68 0 12.6061)
(101.047 9.19891e-19 13.5103)
(101.453 0 14.3676)
(101.882 -4.59748e-19 15.1634)
(102.319 0 15.8894)
(102.745 2.42062e-19 16.5417)
(103.147 6.73308e-21 17.116)
(103.495 -2.61711e-19 17.4893)
(99.4934 0 4.58881)
(99.7601 5.70626e-16 5.00956)
(99.7287 5.70495e-16 4.99441)
(99.7224 3.07085e-16 4.97658)
(99.7188 1.09069e-15 4.96027)
(99.7159 0 4.94451)
(99.7135 7.83008e-16 4.92874)
(99.7116 2.84572e-16 4.91266)
(99.7101 2.84598e-16 4.89614)
(99.709 -1.58631e-15 4.87908)
(99.7084 0 4.86145)
(99.7083 -7.81525e-16 4.8432)
(99.7087 0 4.82435)
(99.7098 7.8091e-16 4.80489)
(99.7115 -2.20613e-17 4.78487)
(99.714 -7.06987e-17 4.76435)
(99.7171 -7.07108e-17 4.74346)
(99.7211 7.79698e-16 4.7224)
(99.726 8.71838e-16 4.70148)
(99.7318 8.14446e-16 4.68122)
(99.7384 7.089e-16 4.66249)
(99.7462 7.31103e-16 4.6468)
(99.7551 1.54498e-15 4.63702)
(99.7635 2.20671e-17 4.63725)
(99.768 -7.79698e-16 4.65099)
(99.7698 0 4.68356)
(99.7691 4.11139e-16 4.73922)
(99.7655 9.01318e-18 4.82311)
(99.7592 0 4.94185)
(99.7505 0 5.1033)
(99.7406 -1.02404e-16 5.31636)
(99.7315 4.79539e-17 5.59063)
(99.7267 -2.31323e-18 5.93574)
(99.7314 0 6.36044)
(99.7526 -3.97328e-17 6.8713)
(99.7991 1.35419e-17 7.47122)
(99.881 -7.27598e-18 8.15797)
(100.009 -1.13545e-18 8.92315)
(100.191 2.89564e-18 9.75187)
(100.435 0 10.6235)
(100.739 0 11.5134)
(101.102 5.47188e-19 12.3963)
(101.512 1.86569e-18 13.2485)
(101.957 6.80976e-19 14.0509)
(102.423 2.00402e-21 14.7913)
(102.893 -7.56404e-19 15.4652)
(103.349 2.25472e-19 16.0767)
(103.769 4.9238e-19 16.6309)
(104.035 3.87982e-19 16.9106)
(99.4536 -2.85216e-16 4.61029)
(99.7204 -2.85235e-16 5.03242)
(99.734 0 4.98675)
(99.7331 8.05896e-16 4.96647)
(99.73 8.05598e-16 4.95016)
(99.7267 0 4.93467)
(99.7237 -1.42331e-16 4.91923)
(99.721 -8.62272e-20 4.90355)
(99.7185 1.42266e-16 4.88747)
(99.7165 -8.0414e-16 4.87093)
(99.7148 0 4.85387)
(99.7136 0 4.83627)
(99.7128 0 4.81815)
(99.7124 0 4.79952)
(99.7126 -7.31904e-16 4.78046)
(99.7134 9.61734e-16 4.76104)
(99.7147 7.06307e-17 4.74143)
(99.7165 8.19803e-16 4.72186)
(99.719 8.01455e-16 4.70269)
(99.7219 8.1929e-16 4.68453)
(99.7253 0 4.66832)
(99.7292 1.61988e-15 4.65571)
(99.7335 8.00933e-16 4.6497)
(99.7435 8.0119e-16 4.64918)
(99.762 0 4.65495)
(99.7819 0 4.67779)
(99.7981 4.02147e-16 4.72487)
(99.8105 -4.52269e-18 4.80143)
(99.8191 -2.11424e-16 4.91414)
(99.8246 -1.03975e-16 5.07084)
(99.8285 -1.04732e-16 5.28025)
(99.8336 -3.44357e-18 5.55164)
(99.8441 -1.14824e-18 5.89406)
(99.8661 2.5785e-17 6.31546)
(99.9076 -6.05044e-19 6.8214)
(99.9781 1.35534e-17 7.41349)
(100.088 7.01041e-18 8.08816)
(100.249 0 8.8357)
(100.467 -5.57045e-19 9.64016)
(100.748 3.11149e-18 10.4803)
(101.091 -1.86149e-18 11.3319)
(101.491 -1.88902e-18 12.17)
(101.936 9.41385e-19 12.9723)
(102.413 9.54108e-19 13.721)
(102.907 7.57055e-19 14.4046)
(103.407 -2.2282e-19 15.0192)
(103.903 4.98282e-19 15.5779)
(104.373 -4.37935e-21 16.1406)
(104.595 1.25763e-19 16.6352)
(99.4189 1.10956e-15 4.67022)
(99.6611 0 5.03308)
(99.71 -8.39004e-16 4.99557)
(99.7129 9.76808e-16 4.97638)
(99.7115 -7.00339e-16 4.95961)
(99.7096 0 4.94335)
(99.7078 0 4.92704)
(99.7064 0 4.91042)
(99.7053 0 4.89335)
(99.7047 0 4.87573)
(99.7046 8.36692e-16 4.85753)
(99.7051 0 4.83871)
(99.7062 0 4.81926)
(99.708 0 4.7992)
(99.7105 0 4.77857)
(99.7138 -1.48294e-17 4.75745)
(99.7181 8.34884e-16 4.73595)
(99.7233 8.19767e-16 4.71427)
(99.7296 0 4.69274)
(99.7369 8.19259e-16 4.6719)
(99.7456 0 4.65259)
(99.7557 -1.48326e-17 4.63631)
(99.7661 8.34797e-18 4.62723)
(99.7685 -8.25713e-16 4.63248)
(99.7632 -8.50998e-18 4.65455)
(99.7653 4.09266e-16 4.68995)
(99.7814 0 4.73812)
(99.8118 -2.1986e-18 4.80403)
(99.856 -4.19698e-16 4.895)
(99.913 -1.03987e-16 5.01987)
(99.9821 0 5.18877)
(100.063 0 5.41275)
(100.157 5.41779e-17 5.70309)
(100.265 2.69445e-17 6.07025)
(100.392 2.72859e-17 6.52242)
(100.543 -5.62446e-19 7.06361)
(100.725 6.4541e-18 7.69198)
(100.945 0 8.39863)
(101.212 5.53222e-19 9.16746)
(101.529 4.7716e-18 9.97644)
(101.894 -3.20325e-18 10.8)
(102.304 -2.16049e-18 11.6122)
(102.749 -5.39297e-19 12.3897)
(103.216 -2.68762e-19 13.1138)
(103.695 -2.72208e-19 13.7705)
(104.177 5.01871e-19 14.3462)
(104.679 1.0324e-18 14.8119)
(105.283 2.67624e-19 15.0753)
(106.073 0 16.6928)
(102.79 0 24.5243)
(100.082 1.52147e-21 20.8744)
(100.052 -3.3118e-19 21.5225)
(100.016 -4.13117e-19 22.2129)
(99.9751 4.87147e-19 22.9558)
(99.9316 -7.7568e-20 23.7574)
(99.8854 7.76989e-20 24.6246)
(99.8369 2.31175e-19 25.5659)
(99.7867 0 26.5909)
(99.7359 -1.65686e-19 27.7114)
(99.6856 -1.69286e-19 28.9414)
(99.638 2.68754e-19 30.298)
(99.5957 -7.33184e-20 31.8019)
(99.5645 0 33.4881)
(99.5477 8.67019e-20 35.305)
(99.5538 1.62793e-19 37.1781)
(99.586 -1.57633e-20 39.0999)
(99.6476 9.03637e-20 41.0647)
(99.7416 -6.19676e-20 43.0663)
(99.8706 1.62809e-21 45.0987)
(100.037 -4.82265e-20 47.1559)
(100.242 2.18846e-20 49.232)
(100.488 4.76038e-20 51.3218)
(104.16 0 24.6468)
(101.035 8.12421e-20 20.482)
(101.036 0 21.1312)
(101.034 8.24554e-20 21.8194)
(101.032 6.51647e-19 22.5588)
(101.03 2.40399e-19 23.3562)
(101.029 0 24.2189)
(101.028 -1.1277e-19 25.1554)
(101.03 -2.32038e-21 26.1755)
(101.035 1.08293e-19 27.2908)
(101.045 -1.7086e-19 28.5155)
(101.063 7.54222e-20 29.8664)
(101.093 -3.73552e-21 31.3643)
(101.141 3.58461e-19 33.0434)
(101.21 5.60563e-20 34.8535)
(101.301 -3.84086e-20 36.7151)
(101.42 -3.31725e-20 38.6219)
(101.567 8.957e-20 40.5676)
(101.747 2.88807e-20 42.5458)
(101.96 0 44.5504)
(102.209 -4.73618e-20 46.5748)
(102.496 4.80236e-20 48.6132)
(102.82 0 50.6596)
(103.182 -4.9042e-20 52.709)
(104.023 4.96119e-20 56.7988)
(105.487 2.61476e-19 24.6775)
(101.96 0 19.9385)
(101.995 0 20.5766)
(102.027 0 21.2572)
(102.061 -1.70352e-19 21.9912)
(102.096 2.37836e-19 22.784)
(102.135 4.68682e-19 23.6427)
(102.178 2.30674e-19 24.5754)
(102.225 0 25.5921)
(102.28 0 26.7044)
(102.343 0 27.9263)
(102.418 1.77184e-19 29.275)
(102.511 9.1787e-20 30.7713)
(102.626 2.6744e-19 32.449)
(102.769 1.80582e-19 34.2584)
(102.934 9.17533e-20 36.1156)
(103.126 9.26429e-20 38.0146)
(103.347 0 39.949)
(103.599 0 41.9122)
(103.885 2.38265e-20 43.8976)
(104.205 -2.55706e-20 45.8985)
(104.561 9.73772e-20 47.9085)
(104.952 0 49.9218)
(105.379 0 51.9326)
(105.841 2.51143e-20 53.9363)
(106.338 5.46064e-20 55.9285)
(106.868 3.21783e-21 57.9061)
(107.431 -2.76983e-20 59.8669)
(106.719 6.99813e-19 24.7088)
(102.739 2.56523e-19 19.4469)
(102.807 4.22014e-19 20.0784)
(102.873 2.49214e-19 20.7497)
(102.942 -5.86109e-19 21.4743)
(103.016 -4.14262e-19 22.2581)
(103.095 0 23.1079)
(103.18 -6.28783e-20 24.0319)
(103.273 1.78925e-19 25.0397)
(103.375 -2.74737e-21 26.1432)
(103.491 3.84134e-19 27.3563)
(103.623 4.58288e-19 28.6962)
(103.777 1.81203e-19 30.1836)
(103.959 -1.81671e-19 31.8522)
(104.174 -3.89646e-20 33.6529)
(104.41 5.46926e-20 35.498)
(104.672 9.35873e-20 37.3825)
(104.963 -2.91592e-20 39.2994)
(105.285 -2.80393e-20 41.242)
(105.639 4.83332e-20 43.2032)
(106.026 -4.87848e-20 45.1763)
(106.446 4.9303e-20 47.1546)
(106.901 6.91432e-21 49.1317)
(107.388 -1.88106e-20 51.1019)
(107.908 2.54403e-20 53.0599)
(108.459 2.5704e-20 55.0013)
(109.039 0 56.9224)
(109.647 -5.234e-20 58.8206)
(110.279 0 60.6939)
(107.892 -7.81489e-20 24.7016)
(103.461 0 18.8597)
(103.566 -1.63625e-21 19.4792)
(103.665 0 20.1417)
(103.768 -2.40448e-19 20.8595)
(103.876 -2.19956e-21 21.6372)
(103.991 2.35633e-19 22.4814)
(104.113 1.35058e-21 23.3999)
(104.247 6.81746e-20 24.4025)
(104.392 -2.13851e-19 25.5007)
(104.554 1.76612e-19 26.7086)
(104.737 2.81019e-19 28.0434)
(104.945 -9.23595e-22 29.5257)
(105.188 4.21071e-20 31.1898)
(105.467 2.38549e-21 32.9854)
(105.767 -3.779e-20 34.8225)
(106.092 0 36.6962)
(106.446 -2.87811e-20 38.5993)
(106.83 -1.49333e-20 40.5249)
(107.246 6.10265e-20 42.4657)
(107.693 0 44.4146)
(108.172 0 46.3648)
(108.683 -5.02551e-20 48.3096)
(109.226 -2.54274e-20 50.2429)
(109.798 0 52.1593)
(110.399 0 54.054)
(111.025 -2.60795e-20 55.9232)
(111.675 -2.60119e-20 57.7638)
(112.344 2.29881e-22 59.5737)
(113.03 -1.69062e-23 61.3518)
(108.946 0 24.6751)
(104.066 -1.7539e-19 18.2847)
(104.217 -1.74682e-19 18.8964)
(104.355 0 19.5498)
(104.493 -1.2809e-21 20.2586)
(104.636 -1.22733e-21 21.0273)
(104.786 -6.35638e-20 21.8623)
(104.946 2.93413e-19 22.7716)
(105.119 7.18104e-20 23.765)
(105.306 -2.89775e-19 24.854)
(105.513 -8.20804e-20 26.0528)
(105.744 9.95436e-20 27.3787)
(106.005 -1.84696e-19 28.8525)
(106.306 0 30.5091)
(106.645 0 32.2967)
(107.005 -9.50754e-20 34.1239)
(107.39 -9.59203e-20 35.9856)
(107.802 -2.83237e-20 37.8744)
(108.244 -1.12406e-19 39.7831)
(108.716 1.19502e-20 41.704)
(109.218 4.97346e-20 43.6297)
(109.751 0 45.5531)
(110.314 -4.44813e-20 47.4671)
(110.907 5.73388e-21 49.3654)
(111.528 0 51.2421)
(112.174 -1.25842e-21 53.0923)
(112.844 -2.73597e-20 54.9117)
(113.534 1.32438e-20 56.6974)
(114.24 0 58.4475)
(114.958 0 60.1613)
(115.681 -3.21821e-22 61.8385)
(109.729 1.89079e-19 24.5431)
(104.571 -4.27786e-19 17.69)
(104.781 -7.35986e-20 18.3045)
(104.961 2.44386e-19 18.9566)
(105.135 6.53241e-20 19.661)
(105.311 -3.58774e-19 20.4232)
(105.494 9.45682e-22 21.2501)
(105.689 1.81533e-19 22.1505)
(105.898 2.89735e-19 23.1343)
(106.126 -7.55061e-20 24.2134)
(106.375 -3.68375e-19 25.4022)
(106.653 0 26.7177)
(106.964 0 28.1809)
(107.32 -4.10771e-20 29.828)
(107.717 -2.30267e-19 31.6047)
(108.134 -1.91637e-19 33.4191)
(108.576 -9.66639e-20 35.266)
(109.044 1.35751e-20 37.1376)
(109.541 -8.54531e-20 39.0263)
(110.066 0 40.9244)
(110.621 9.17474e-20 42.8242)
(111.205 4.25708e-20 44.7181)
(111.819 0 46.5987)
(112.459 0 48.4592)
(113.126 0 50.2933)
(113.816 2.69736e-20 52.0954)
(114.528 5.18395e-22 53.8607)
(115.257 1.32396e-20 55.5857)
(116.001 -3.98972e-22 57.2684)
(116.755 -6.83563e-22 58.9085)
(117.513 -9.21139e-22 60.5092)
(118.265 -6.94554e-22 62.0775)
(109.933 1.87931e-19 21.9467)
(105.779 6.92413e-19 15.3519)
(105.926 6.89463e-19 16.2033)
(106.06 -1.80075e-19 17.0393)
(106.197 -2.43156e-19 17.9004)
(106.342 -1.21893e-19 18.8047)
(106.499 1.83619e-19 19.7649)
(106.672 -4.52407e-20 20.7916)
(106.864 7.23703e-20 21.8951)
(107.08 1.84955e-19 23.0866)
(107.324 -1.85497e-19 24.3789)
(107.602 -9.5031e-20 25.7875)
(107.922 -1.38069e-19 27.3313)
(108.298 1.46214e-19 29.0451)
(108.723 -1.91335e-19 30.8687)
(109.176 -6.24937e-20 32.7087)
(109.659 -3.38126e-20 34.5634)
(110.172 2.94804e-20 36.4289)
(110.716 -4.95153e-20 38.3004)
(111.291 -6.00674e-20 40.1727)
(111.896 -9.60624e-22 42.0399)
(112.53 5.89313e-20 43.896)
(113.192 -5.45857e-21 45.7346)
(113.88 -6.95848e-21 47.5493)
(114.591 -3.18542e-21 49.3342)
(115.324 2.61387e-20 51.0835)
(116.075 -1.26808e-20 52.7923)
(116.842 1.33881e-20 54.4566)
(117.621 0 56.0743)
(118.409 0 57.6452)
(119.202 0 59.1719)
(120 0 60.6615)
(120.793 0 62.1288)
(99.4817 1.13265e-15 4.63988)
(99.7198 -8.55077e-16 4.98039)
(99.7052 -5.64213e-16 4.99335)
(99.7043 5.642e-16 4.97857)
(99.7026 -2.10445e-15 4.96252)
(99.7005 -1.12837e-15 4.94652)
(99.6985 -9.90908e-16 4.9304)
(99.6967 -9.90437e-16 4.91395)
(99.6952 8.53095e-16 4.89705)
(99.6942 1.23809e-19 4.87964)
(99.6937 6.99902e-16 4.86165)
(99.6937 0 4.84307)
(99.6943 0 4.8239)
(99.6955 0 4.80415)
(99.6975 0 4.78385)
(99.7003 -8.35139e-16 4.76309)
(99.7041 9.02564e-16 4.74198)
(99.7088 6.77348e-17 4.72072)
(99.7146 -8.50254e-16 4.6996)
(99.7218 3.35603e-17 4.67911)
(99.7306 3.35683e-17 4.66)
(99.7416 -8.33761e-16 4.64351)
(99.7579 -1.64793e-17 4.63086)
(99.785 -8.50533e-16 4.62001)
(99.8266 8.5858e-16 4.60979)
(99.8846 8.51558e-16 4.60616)
(99.9589 4.22543e-16 4.61374)
(100.051 -2.13846e-16 4.63716)
(100.161 -2.08605e-16 4.68203)
(100.293 -1.89417e-18 4.75563)
(100.446 0 4.86676)
(100.623 8.82673e-19 5.02534)
(100.825 5.42097e-17 5.24166)
(101.056 -8.57584e-19 5.52524)
(101.32 0 5.8835)
(101.624 0 6.31988)
(101.974 0 6.83234)
(102.375 -7.35536e-18 7.41238)
(102.832 3.51411e-19 8.04488)
(103.344 6.89421e-19 8.70942)
(103.905 -1.55293e-18 9.38257)
(104.507 1.94863e-18 10.041)
(105.135 -3.10048e-19 10.6642)
(105.772 -3.08995e-19 11.2363)
(106.402 -4.98131e-19 11.7464)
(107.004 3.59141e-19 12.1893)
(107.534 3.68228e-19 12.5733)
(107.871 1.34464e-19 12.9493)
(111.404 2.13644e-21 17.1373)
(99.4708 5.74093e-16 4.62263)
(99.7315 -8.55335e-16 4.99444)
(99.7042 5.49286e-16 4.99109)
(99.7019 1.47192e-19 4.97663)
(99.7001 -1.26596e-15 4.96104)
(99.6979 -9.9121e-16 4.94526)
(99.6957 -8.53754e-16 4.92925)
(99.6937 -1.7227e-15 4.91289)
(99.692 -1.57746e-17 4.8961)
(99.6907 0 4.87879)
(99.6898 0 4.86095)
(99.6895 0 4.84254)
(99.6897 8.67742e-16 4.82359)
(99.6905 0 4.80411)
(99.692 -6.7934e-17 4.78415)
(99.6942 -6.79458e-17 4.76382)
(99.6972 -6.7668e-17 4.74326)
(99.7011 -3.39326e-17 4.72268)
(99.7059 -8.16461e-16 4.70245)
(99.7118 0 4.6831)
(99.7188 0 4.66551)
(99.7274 -8.4888e-16 4.6511)
(99.7384 8.65626e-16 4.64232)
(99.7505 -1.64448e-17 4.64205)
(99.7598 -1.57384e-17 4.65476)
(99.7671 4.25716e-16 4.68745)
(99.7736 4.26461e-16 4.74395)
(99.7804 -2.1378e-16 4.82912)
(99.7891 -2.18455e-16 4.94933)
(99.8019 0 5.11209)
(99.8219 0 5.32571)
(99.8539 -5.56368e-17 5.59883)
(99.904 0 5.93965)
(99.9802 0 6.35488)
(100.092 0 6.84838)
(100.25 1.49194e-17 7.41952)
(100.464 1.54738e-17 8.06195)
(100.743 -7.35274e-18 8.76298)
(101.092 -1.1448e-20 9.50402)
(101.51 -3.52856e-18 10.2622)
(101.991 0 11.0128)
(102.523 2.2407e-18 11.7329)
(103.09 5.65203e-19 12.4031)
(103.673 2.76856e-19 13.0099)
(104.252 0 13.5468)
(104.806 5.1995e-19 14.0164)
(105.325 -1.27563e-19 14.4318)
(105.837 -7.699e-19 14.8027)
(113.774 2.68549e-20 19.154)
(99.4197 2.72237e-16 4.66489)
(99.6762 0 5.02826)
(99.7003 2.71986e-16 4.98987)
(99.7008 2.72019e-16 4.97386)
(99.699 0 4.95856)
(99.6968 1.35782e-16 4.94298)
(99.6945 1.35795e-16 4.92708)
(99.6923 -8.69203e-16 4.91079)
(99.6904 -8.68908e-16 4.89406)
(99.6889 0 4.87683)
(99.6878 -8.839e-16 4.85907)
(99.6872 -1.35089e-16 4.84077)
(99.6871 1.68335e-15 4.82196)
(99.6876 6.74704e-17 4.80264)
(99.6888 9.49938e-16 4.7829)
(99.6907 1.3439e-16 4.76284)
(99.6934 -7.47981e-16 4.7426)
(99.6969 9.48797e-16 4.72243)
(99.7013 0 4.70268)
(99.7066 -3.31562e-17 4.68393)
(99.7132 -3.31629e-17 4.66707)
(99.7212 -8.81823e-16 4.65352)
(99.7315 8.49079e-16 4.64577)
(99.743 0 4.64691)
(99.7523 -8.6624e-16 4.66121)
(99.7604 -4.41358e-16 4.69515)
(99.7689 -3.83248e-18 4.75258)
(99.7794 2.17754e-16 4.8382)
(99.7938 -4.40837e-16 4.95824)
(99.8151 -1.11692e-16 5.12002)
(99.8473 0 5.33159)
(99.8956 -5.64994e-17 5.60134)
(99.9672 -5.79726e-17 5.93714)
(100.071 7.78307e-19 6.34525)
(100.216 7.7441e-19 6.82895)
(100.414 1.45653e-17 7.38684)
(100.675 -2.33235e-19 8.01167)
(101.007 0 8.68981)
(101.413 0 9.4018)
(101.892 -3.56237e-18 10.1242)
(102.434 -1.97579e-18 10.8326)
(103.026 -2.29575e-18 11.5044)
(103.648 1.02071e-18 12.1218)
(104.281 -9.08268e-19 12.6735)
(104.904 -7.99906e-19 13.1556)
(105.505 6.41197e-19 13.5708)
(106.081 -3.55275e-20 13.9241)
(106.628 -1.48665e-19 14.2107)
(115.399 -1.12173e-19 18.5929)
(99.4245 -6.32578e-16 4.68744)
(99.6709 2.63533e-16 5.00533)
(99.69 0 4.99218)
(99.6908 9.01284e-16 4.9775)
(99.6898 2.63074e-16 4.96187)
(99.6885 1.16384e-15 4.94566)
(99.6872 0 4.92898)
(99.6862 -1.3128e-16 4.9118)
(99.6855 -2.62474e-16 4.89408)
(99.6853 -1.03076e-15 4.87577)
(99.6856 1.54019e-17 4.85685)
(99.6866 0 4.83728)
(99.6883 8.83249e-16 4.81708)
(99.6908 0 4.79625)
(99.6942 8.8264e-16 4.77483)
(99.6986 0 4.75291)
(99.7041 -9.46879e-16 4.73061)
(99.7109 8.1692e-16 4.70811)
(99.719 3.2221e-17 4.68572)
(99.7288 -8.64457e-16 4.66393)
(99.7405 -1.59631e-17 4.64351)
(99.7548 -1.10331e-19 4.62575)
(99.7726 -8.96287e-16 4.61288)
(99.7934 8.80948e-16 4.60796)
(99.8136 7.66414e-18 4.61563)
(99.8332 -4.33706e-16 4.64282)
(99.8533 4.46081e-16 4.69378)
(99.8753 -7.53035e-18 4.77364)
(99.9011 -4.50349e-16 4.88895)
(99.9334 -1.13485e-16 5.04735)
(99.9764 0 5.25715)
(100.036 0 5.52684)
(100.119 -5.71665e-17 5.86416)
(100.235 0 6.27503)
(100.395 2.97107e-17 6.76203)
(100.61 3.42545e-19 7.32276)
(100.892 -1.46825e-17 7.94862)
(101.247 0 8.62452)
(101.679 -8.14386e-18 9.32959)
(102.185 -3.99245e-18 10.0394)
(102.753 -1.44056e-18 10.7291)
(103.369 -1.75029e-18 11.3764)
(104.012 1.08181e-19 11.9647)
(104.661 -9.12354e-19 12.484)
(105.3 1.55901e-20 12.9312)
(105.914 0 13.307)
(106.497 -2.71033e-19 13.6118)
(107.033 -2.73319e-19 13.8383)
(116.684 1.02241e-19 18.2411)
(99.4591 -1.15967e-15 4.64933)
(99.7169 -2.63701e-16 4.97837)
(99.685 0 4.99282)
(99.682 9.01241e-16 4.98041)
(99.6802 -1.56935e-15 4.96538)
(99.6785 1.16372e-15 4.94958)
(99.6767 0 4.93325)
(99.6751 -1.83064e-15 4.91641)
(99.6739 0 4.89904)
(99.6731 -8.99516e-16 4.88111)
(99.6728 -9.29633e-16 4.8626)
(99.673 0 4.84351)
(99.6739 6.52638e-17 4.82384)
(99.6756 1.82714e-15 4.80363)
(99.678 -6.51769e-17 4.78293)
(99.6814 0 4.76184)
(99.6857 0 4.7405)
(99.6912 1.85698e-15 4.71914)
(99.6978 3.22951e-17 4.69808)
(99.7059 -2.72037e-15 4.67788)
(99.7155 0 4.65936)
(99.7274 1.58212e-17 4.64386)
(99.7424 -8.8058e-16 4.63375)
(99.7598 -1.52027e-17 4.63233)
(99.7768 -9.12374e-16 4.644)
(99.7937 -4.56649e-16 4.67506)
(99.8124 -3.89136e-18 4.72955)
(99.8346 1.10584e-17 4.81238)
(99.863 -2.24387e-16 4.92983)
(99.901 -1.17274e-16 5.08921)
(99.9537 -1.16207e-16 5.29847)
(100.027 0 5.56569)
(100.13 -5.90667e-17 5.89816)
(100.273 7.34075e-19 6.30121)
(100.465 3.04654e-17 6.77672)
(100.72 3.33568e-19 7.32145)
(101.048 1.58314e-17 7.9259)
(101.455 0 8.5741)
(101.942 1.14249e-19 9.24455)
(102.505 -8.03091e-18 9.91264)
(103.129 -2.56635e-19 10.5539)
(103.798 -2.55137e-19 11.1475)
(104.489 -1.0384e-18 11.6782)
(105.182 0 12.1378)
(105.856 1.16933e-18 12.5243)
(106.498 1.06109e-19 12.8396)
(107.093 -2.71016e-19 13.0892)
(107.614 4.18408e-21 13.2804)
(118.056 6.27346e-20 17.6662)
(99.4201 1.85202e-15 4.66258)
(99.6938 0 5.01039)
(99.6903 2.63302e-16 4.9862)
(99.688 2.63326e-16 4.97202)
(99.6859 -1.83228e-15 4.95728)
(99.6836 -1.86173e-15 4.94184)
(99.6814 1.86115e-15 4.92584)
(99.6794 -1.83056e-15 4.90933)
(99.6776 1.85998e-15 4.8923)
(99.6762 0 4.87473)
(99.6753 -1.9596e-15 4.85663)
(99.6749 -1.30856e-16 4.838)
(99.6751 0 4.81886)
(99.6759 3.51236e-17 4.79926)
(99.6775 6.5157e-17 4.77927)
(99.6799 1.85576e-15 4.75901)
(99.6831 -1.85519e-15 4.73866)
(99.6872 1.82461e-15 4.71846)
(99.6924 0 4.6988)
(99.6986 -1.82365e-15 4.68027)
(99.7062 1.59159e-17 4.6638)
(99.7155 1.59192e-17 4.65083)
(99.7272 1.56491e-17 4.64396)
(99.7405 -8.96195e-16 4.64681)
(99.7529 -9.12382e-16 4.66363)
(99.7654 -4.56663e-16 4.70014)
(99.7798 -4.53739e-16 4.7603)
(99.7985 2.29333e-16 4.84895)
(99.8246 -1.8347e-18 4.9722)
(99.8621 -1.138e-16 5.1372)
(99.9166 -1.16239e-16 5.35166)
(99.9952 7.90134e-19 5.62334)
(100.107 -5.83071e-17 5.95913)
(100.262 0 6.36376)
(100.473 -2.99809e-17 6.83838)
(100.751 1.62184e-17 7.37877)
(101.106 1.55162e-17 7.97435)
(101.545 7.9814e-18 8.6081)
(102.066 7.98292e-18 9.25774)
(102.664 -4.04923e-18 9.89844)
(103.322 0 10.5062)
(104.02 0 11.061)
(104.737 -1.06925e-18 11.5494)
(105.448 1.06399e-19 11.9649)
(106.136 1.20106e-18 12.3066)
(106.784 9.70859e-20 12.5784)
(107.381 -1.81906e-19 12.7878)
(107.91 2.77179e-19 12.9382)
(119.042 0 17.2556)
(99.387 1.59703e-15 4.71088)
(99.6446 -2.5543e-16 5.02878)
(99.6704 0 4.99811)
(99.6703 0 4.98285)
(99.6687 0 4.96754)
(99.6672 -1.86164e-15 4.95149)
(99.6657 3.75175e-15 4.9348)
(99.6646 -1.27215e-16 4.91751)
(99.6638 1.73266e-15 4.89961)
(99.6634 1.88891e-15 4.88111)
(99.6637 0 4.86198)
(99.6645 2.01438e-15 4.84222)
(99.6661 2.0138e-15 4.82186)
(99.6686 -1.92001e-15 4.80092)
(99.6719 -1.94905e-15 4.77946)
(99.6763 3.74097e-15 4.75757)
(99.6819 2.96346e-17 4.7354)
(99.6887 1.88419e-15 4.71315)
(99.697 -1.88369e-15 4.69116)
(99.7069 1.85223e-15 4.66994)
(99.7188 -3.10287e-17 4.6503)
(99.7333 -1.53083e-17 4.63353)
(99.7515 -1.8981e-15 4.62197)
(99.773 -7.482e-18 4.6191)
(99.7952 -7.48297e-18 4.62939)
(99.8184 4.71546e-16 4.65893)
(99.8442 0 4.71195)
(99.8751 -3.46669e-18 4.79348)
(99.9141 2.33982e-16 4.90977)
(99.9653 0 5.06812)
(100.035 0 5.27628)
(100.129 0 5.5419)
(100.259 0 5.87152)
(100.435 0 6.26938)
(100.669 -3.06937e-17 6.73581)
(100.974 3.13127e-17 7.26553)
(101.359 2.98025e-19 7.84678)
(101.83 8.00449e-18 8.4614)
(102.385 -2.79531e-19 9.08627)
(103.015 4.16716e-18 9.69627)
(103.703 -1.1805e-19 10.2678)
(104.428 2.02428e-18 10.7822)
(105.164 -9.64574e-19 11.2274)
(105.891 1.0515e-19 11.5986)
(106.587 1.55528e-18 11.8968)
(107.236 -4.54544e-21 12.1276)
(107.829 -2.74809e-19 12.299)
(108.346 -8.66044e-20 12.4126)
(120.089 -1.6192e-19 16.6325)
(99.422 1.65985e-15 4.69119)
(99.6802 -5.03148e-16 4.98922)
(99.6682 -2.17344e-15 4.99598)
(99.6654 2.51149e-16 4.98288)
(99.6636 2.42309e-15 4.96765)
(99.662 3.76435e-16 4.95156)
(99.6606 9.62217e-17 4.93479)
(99.6594 -1.91921e-15 4.91739)
(99.6587 0 4.89937)
(99.6584 1.88881e-15 4.88072)
(99.6587 0 4.86144)
(99.6596 1.88759e-15 4.84153)
(99.6614 3.80319e-15 4.82101)
(99.6639 0 4.79992)
(99.6675 -1.88578e-15 4.77831)
(99.6721 1.8852e-15 4.75629)
(99.6779 1.88463e-15 4.73399)
(99.685 3.79742e-15 4.71162)
(99.6936 2.92411e-17 4.68953)
(99.7039 1.85265e-15 4.66823)
(99.7164 1.91188e-15 4.64851)
(99.7315 3.03348e-17 4.63166)
(99.7506 -1.88273e-15 4.61998)
(99.7734 0 4.61696)
(99.7976 0 4.62703)
(99.8234 -3.74038e-18 4.65606)
(99.853 4.83128e-16 4.70823)
(99.8888 -2.36934e-16 4.78845)
(99.9345 2.40866e-16 4.90285)
(99.9946 0 5.05849)
(100.076 0 5.26279)
(100.186 -7.42891e-19 5.52304)
(100.334 -7.40565e-19 5.84526)
(100.534 -6.77841e-19 6.23296)
(100.797 -3.22809e-17 6.68558)
(101.136 1.60849e-17 7.19691)
(101.559 1.65175e-17 7.75415)
(102.071 -2.70304e-19 8.33832)
(102.67 -2.68653e-19 8.92592)
(103.342 -5.6254e-20 9.49203)
(104.07 -4.28644e-18 10.0141)
(104.83 2.24832e-18 10.4749)
(105.596 1.04988e-19 10.8646)
(106.345 0 11.1806)
(107.056 5.55115e-19 11.4264)
(107.714 0 11.6108)
(108.308 0 11.747)
(108.812 2.89058e-19 11.8491)
(121.186 -3.98593e-19 15.9127)
(99.4176 2.16262e-15 4.66961)
(99.6994 2.51669e-16 4.9955)
(99.6654 -3.87265e-15 4.99622)
(99.6612 0 4.98259)
(99.659 -2.87758e-17 4.96742)
(99.6571 1.94905e-15 4.95148)
(99.6554 -1.9197e-15 4.93486)
(99.654 -3.86701e-15 4.9176)
(99.653 0 4.89972)
(99.6524 0 4.88123)
(99.6524 1.24797e-16 4.86213)
(99.653 2.49455e-16 4.84243)
(99.6544 2.04076e-15 4.82216)
(99.6566 0 4.80136)
(99.6597 0 4.78012)
(99.6638 0 4.75854)
(99.6691 -6.16916e-17 4.73678)
(99.6756 1.85152e-15 4.71508)
(99.6835 1.88211e-15 4.6938)
(99.6931 -1.97177e-15 4.67349)
(99.7045 1.88169e-15 4.65501)
(99.7185 1.91033e-15 4.63971)
(99.7359 1.92585e-15 4.63003)