# vtk DataFile Version 2.0
track0
ASCII
DATASET POLYDATA
POINTS 8204 float
0.0624513 -0.666667 -0.0389216
0.0634193 -0.666667 -0.0391716
0.0643872 -0.666667 -0.0394217
0.0665167 -0.666667 -0.0399718
0.0675815 -0.666667 -0.0402468
0.0699319 -0.666667 -0.0408202
0.0711071 -0.666667 -0.0411069
0.0737039 -0.666667 -0.041689
0.0750023 -0.666667 -0.04198
0.077863 -0.666667 -0.0426016
0.0792933 -0.666667 -0.0429124
0.0824485 -0.666667 -0.0435559
0.0840261 -0.666667 -0.0438776
0.0875033 -0.666667 -0.0445525
0.089242 -0.666667 -0.0448899
0.093073 -0.666667 -0.0456003
0.0949885 -0.666667 -0.0459556
0.099214 -0.666667 -0.0466733
0.101327 -0.666667 -0.0470322
0.105984 -0.666667 -0.0477644
0.108313 -0.666667 -0.0481305
0.113445 -0.666667 -0.0488759
0.116011 -0.666667 -0.0492486
0.121657 -0.666667 -0.0500685
0.124479 -0.666667 -0.0504784
0.130706 -0.666667 -0.0512601
0.133819 -0.666667 -0.0516509
0.140681 -0.666667 -0.0523965
0.144112 -0.666667 -0.0527694
0.151663 -0.666667 -0.0535662
0.155438 -0.666667 -0.0539647
0.163756 -0.666667 -0.0547255
0.167915 -0.666667 -0.0551059
0.177077 -0.666667 -0.0557849
0.181658 -0.666667 -0.0561244
0.191741 -0.666667 -0.0568037
0.196783 -0.666667 -0.0571433
0.207464 -0.666667 -0.0576636
0.212805 -0.666667 -0.0579237
0.223486 -0.666667 -0.058444
0.228826 -0.666667 -0.0587041
0.239515 -0.666667 -0.0590136
0.24486 -0.666667 -0.0591683
0.255551 -0.666667 -0.0594238
0.260896 -0.666667 -0.0595516
0.271588 -0.666667 -0.059751
0.276934 -0.666667 -0.0598507
0.287627 -0.666667 -0.0598771
0.292974 -0.666667 -0.0598903
0.303668 -0.666667 -0.0599167
0.309015 -0.666667 -0.0599299
0.065452 -0.666667 -0.0396967
0.0665167 -0.666667 -0.0399718
0.0675815 -0.666667 -0.0402468
0.0699319 -0.666667 -0.0408202
0.0711071 -0.666667 -0.0411069
0.0737039 -0.666667 -0.041689
0.0750023 -0.666667 -0.04198
0.077863 -0.666667 -0.0426016
0.0792933 -0.666667 -0.0429124
0.0824485 -0.666667 -0.0435559
0.0840261 -0.666667 -0.0438776
0.0875033 -0.666667 -0.0445525
0.089242 -0.666667 -0.0448899
0.093073 -0.666667 -0.0456003
0.0949885 -0.666667 -0.0459556
0.099214 -0.666667 -0.0466733
0.101327 -0.666667 -0.0470322
0.105984 -0.666667 -0.0477644
0.108313 -0.666667 -0.0481305
0.113445 -0.666667 -0.0488759
0.116011 -0.666667 -0.0492486
0.121657 -0.666667 -0.0500685
0.124479 -0.666667 -0.0504784
0.130706 -0.666667 -0.0512601
0.133819 -0.666667 -0.0516509
0.140681 -0.666667 -0.0523965
0.144112 -0.666667 -0.0527694
0.151663 -0.666667 -0.0535662
0.155438 -0.666667 -0.0539647
0.163756 -0.666667 -0.0547255
0.167915 -0.666667 -0.0551059
0.177077 -0.666667 -0.0557849
0.181658 -0.666667 -0.0561244
0.191741 -0.666667 -0.0568037
0.196783 -0.666667 -0.0571433
0.207464 -0.666667 -0.0576636
0.212805 -0.666667 -0.0579237
0.223486 -0.666667 -0.058444
0.228826 -0.666667 -0.0587041
0.239515 -0.666667 -0.0590136
0.24486 -0.666667 -0.0591683
0.255551 -0.666667 -0.0594238
0.260896 -0.666667 -0.0595516
0.271588 -0.666667 -0.059751
0.276934 -0.666667 -0.0598507
0.287627 -0.666667 -0.0598771
0.292974 -0.666667 -0.0598903
0.303668 -0.666667 -0.0599167
0.309015 -0.666667 -0.0599299
0.319708 -0.666667 -0.0598792
0.325055 -0.666667 -0.0598539
0.0687567 -0.666667 -0.0405335
0.0699319 -0.666667 -0.0408202
0.0711071 -0.666667 -0.0411069
0.0737039 -0.666667 -0.041689
0.0750023 -0.666667 -0.04198
0.077863 -0.666667 -0.0426016
0.0792933 -0.666667 -0.0429124
0.0824485 -0.666667 -0.0435559
0.0840261 -0.666667 -0.0438776
0.0875033 -0.666667 -0.0445525
0.089242 -0.666667 -0.0448899
0.093073 -0.666667 -0.0456003
0.0949885 -0.666667 -0.0459556
0.099214 -0.666667 -0.0466733
0.101327 -0.666667 -0.0470322
0.105984 -0.666667 -0.0477644
0.108313 -0.666667 -0.0481305
0.113445 -0.666667 -0.0488759
0.116011 -0.666667 -0.0492486
0.121657 -0.666667 -0.0500685
0.124479 -0.666667 -0.0504784
0.130706 -0.666667 -0.0512601
0.133819 -0.666667 -0.0516509
0.140681 -0.666667 -0.0523965
0.144112 -0.666667 -0.0527694
0.151663 -0.666667 -0.0535662
0.155438 -0.666667 -0.0539647
0.163756 -0.666667 -0.0547255
0.167915 -0.666667 -0.0551059
0.177077 -0.666667 -0.0557849
0.181658 -0.666667 -0.0561244
0.191741 -0.666667 -0.0568037
0.196783 -0.666667 -0.0571433
0.207464 -0.666667 -0.0576636
0.212805 -0.666667 -0.0579237
0.223486 -0.666667 -0.058444
0.228826 -0.666667 -0.0587041
0.239515 -0.666667 -0.0590136
0.24486 -0.666667 -0.0591683
0.255551 -0.666667 -0.0594238
0.260896 -0.666667 -0.0595516
0.271588 -0.666667 -0.059751
0.276934 -0.666667 -0.0598507
0.287627 -0.666667 -0.0598771
0.292974 -0.666667 -0.0598903
0.303668 -0.666667 -0.0599167
0.309015 -0.666667 -0.0599299
0.319708 -0.666667 -0.0598792
0.325055 -0.666667 -0.0598539
0.335747 -0.666667 -0.0596835
0.341094 -0.666667 -0.0595984
0.0737039 -0.333333 -0.041689
0.0750023 -0.333333 -0.04198
0.0764327 -0.333333 -0.0422908
0.0792933 -0.333333 -0.0429124
0.0808709 -0.333333 -0.0432341
0.0840261 -0.333333 -0.0438776
0.0857647 -0.333333 -0.044215
0.089242 -0.333333 -0.0448899
0.0911575 -0.333333 -0.0452451
0.0949885 -0.333333 -0.0459556
0.0971013 -0.333333 -0.0463145
0.101327 -0.333333 -0.0470322
0.103655 -0.333333 -0.0473983
0.108313 -0.333333 -0.0481305
0.110879 -0.333333 -0.0485032
0.116011 -0.333333 -0.0492486
0.118834 -0.333333 -0.0496585
0.124479 -0.333333 -0.0504784
0.127592 -0.333333 -0.0508693
0.133819 -0.333333 -0.0516509
0.13725 -0.333333 -0.0520237
0.144112 -0.333333 -0.0527694
0.147887 -0.333333 -0.0531678
0.155438 -0.333333 -0.0539647
0.159597 -0.333333 -0.0543451
0.167915 -0.333333 -0.0551059
0.172496 -0.333333 -0.0554454
0.181658 -0.333333 -0.0561244
0.1867 -0.333333 -0.056464
0.196783 -0.333333 -0.0571433
0.202124 -0.333333 -0.0574034
0.212805 -0.333333 -0.0579237
0.218145 -0.333333 -0.0581838
0.228826 -0.333333 -0.0587041
0.234171 -0.333333 -0.0588588
0.24486 -0.333333 -0.0591683
0.250205 -0.333333 -0.0592961
0.260896 -0.333333 -0.0595516
0.266242 -0.333333 -0.0596513
0.276934 -0.333333 -0.0598507
0.282281 -0.333333 -0.0598639
0.292974 -0.333333 -0.0598903
0.298321 -0.333333 -0.0599035
0.309015 -0.333333 -0.0599299
0.314361 -0.333333 -0.0599045
0.325055 -0.333333 -0.0598539
0.330401 -0.333333 -0.0597687
0.341094 -0.333333 -0.0595984
0.346439 -0.333333 -0.0594969
0.357131 -0.333333 -0.059294
0.077863 -0.333333 -0.0426016
0.0792933 -0.333333 -0.0429124
0.0808709 -0.333333 -0.0432341
0.0840261 -0.333333 -0.0438776
0.0857647 -0.333333 -0.044215
0.089242 -0.333333 -0.0448899
0.0911575 -0.333333 -0.0452451
0.0949885 -0.333333 -0.0459556
0.0971013 -0.333333 -0.0463145
0.101327 -0.333333 -0.0470322
0.103655 -0.333333 -0.0473983
0.108313 -0.333333 -0.0481305
0.110879 -0.333333 -0.0485032
0.116011 -0.333333 -0.0492486
0.118834 -0.333333 -0.0496585
0.124479 -0.333333 -0.0504784
0.127592 -0.333333 -0.0508693
0.133819 -0.333333 -0.0516509
0.13725 -0.333333 -0.0520237
0.144112 -0.333333 -0.0527694
0.147887 -0.333333 -0.0531678
0.155438 -0.333333 -0.0539647
0.159597 -0.333333 -0.0543451
0.167915 -0.333333 -0.0551059
0.172496 -0.333333 -0.0554454
0.181658 -0.333333 -0.0561244
0.1867 -0.333333 -0.056464
0.196783 -0.333333 -0.0571433
0.202124 -0.333333 -0.0574034
0.212805 -0.333333 -0.0579237
0.218145 -0.333333 -0.0581838
0.228826 -0.333333 -0.0587041
0.234171 -0.333333 -0.0588588
0.24486 -0.333333 -0.0591683
0.250205 -0.333333 -0.0592961
0.260896 -0.333333 -0.0595516
0.266242 -0.333333 -0.0596513
0.276934 -0.333333 -0.0598507
0.282281 -0.333333 -0.0598639
0.292974 -0.333333 -0.0598903
0.298321 -0.333333 -0.0599035
0.309015 -0.333333 -0.0599299
0.314361 -0.333333 -0.0599045
0.325055 -0.333333 -0.0598539
0.330401 -0.333333 -0.0597687
0.341094 -0.333333 -0.0595984
0.346439 -0.333333 -0.0594969
0.357131 -0.333333 -0.059294
0.362476 -0.333333 -0.0591368
0.373165 -0.333333 -0.0588223
0.0824485 -0.333333 -0.0435559
0.0840261 -0.333333 -0.0438776
0.0857647 -0.333333 -0.044215
0.089242 -0.333333 -0.0448899
0.0911575 -0.333333 -0.0452451
0.0949885 -0.333333 -0.0459556
0.0971013 -0.333333 -0.0463145
0.101327 -0.333333 -0.0470322
0.103655 -0.333333 -0.0473983
0.108313 -0.333333 -0.0481305
0.110879 -0.333333 -0.0485032
0.116011 -0.333333 -0.0492486
0.118834 -0.333333 -0.0496585
0.124479 -0.333333 -0.0504784
0.127592 -0.333333 -0.0508693
0.133819 -0.333333 -0.0516509
0.13725 -0.333333 -0.0520237
0.144112 -0.333333 -0.0527694
0.147887 -0.333333 -0.0531678
0.155438 -0.333333 -0.0539647
0.159597 -0.333333 -0.0543451
0.167915 -0.333333 -0.0551059
0.172496 -0.333333 -0.0554454
0.181658 -0.333333 -0.0561244
0.1867 -0.333333 -0.056464
0.196783 -0.333333 -0.0571433
0.202124 -0.333333 -0.0574034
0.212805 -0.333333 -0.0579237
0.218145 -0.333333 -0.0581838
0.228826 -0.333333 -0.0587041
0.234171 -0.333333 -0.0588588
0.24486 -0.333333 -0.0591683
0.250205 -0.333333 -0.0592961
0.260896 -0.333333 -0.0595516
0.266242 -0.333333 -0.0596513
0.276934 -0.333333 -0.0598507
0.282281 -0.333333 -0.0598639
0.292974 -0.333333 -0.0598903
0.298321 -0.333333 -0.0599035
0.309015 -0.333333 -0.0599299
0.314361 -0.333333 -0.0599045
0.325055 -0.333333 -0.0598539
0.330401 -0.333333 -0.0597687
0.341094 -0.333333 -0.0595984
0.346439 -0.333333 -0.0594969
0.357131 -0.333333 -0.059294
0.362476 -0.333333 -0.0591368
0.373165 -0.333333 -0.0588223
0.378509 -0.333333 -0.0586502
0.389197 -0.333333 -0.058306
0.0875033 -0.333333 -0.0445525
0.089242 -0.333333 -0.0448899
0.0911575 -0.333333 -0.0452451
0.0949885 -0.333333 -0.0459556
0.0971013 -0.333333 -0.0463145
0.101327 -0.333333 -0.0470322
0.103655 -0.333333 -0.0473983
0.108313 -0.333333 -0.0481305
0.110879 -0.333333 -0.0485032
0.116011 -0.333333 -0.0492486
0.118834 -0.333333 -0.0496585
0.124479 -0.333333 -0.0504784
0.127592 -0.333333 -0.0508693
0.133819 -0.333333 -0.0516509
0.13725 -0.333333 -0.0520237
0.144112 -0.333333 -0.0527694
0.147887 -0.333333 -0.0531678
0.155438 -0.333333 -0.0539647
0.159597 -0.333333 -0.0543451
0.167915 -0.333333 -0.0551059
0.172496 -0.333333 -0.0554454
0.181658 -0.333333 -0.0561244
0.1867 -0.333333 -0.056464
0.196783 -0.333333 -0.0571433
0.202124 -0.333333 -0.0574034
0.212805 -0.333333 -0.0579237
0.218145 -0.333333 -0.0581838
[...]
POINT_DATA 8204
 FIELD attributes 2
U 3 8204 float
-1.23095e-13 	-4.49416e-34 	4.2356e-14 3.42908e-13 	1.25194e-33 	-1.17992e-13 0 	0 	0 4.12837e-13 	-2.30341e-33 	-1.362e-13 0 	0 	0 -4.18063e-13 	4.18602e-34 	1.30828e-13 0 	0 	0 -4.14219e-13 	-1.28498e-34 	1.22056e-13 0 	0 	0 -2.95766e-13 	-1.06243e-35 	8.26546e-14 0 	0 	0 1.75447e-13 	5.02245e-36 	-4.64352e-14 0 	0 	0 -2.9689e-13 	8.36702e-36 	7.44016e-14 0 	0 	0 3.00608e-13 	5.93302e-34 	-7.11908e-14 0 	0 	0 -9.80533e-14 	5.42422e-37 	2.17213e-14 0 	0 	0 9.86584e-14 	-8.13383e-34 	-2.04519e-14 0 	0 	0 2.17504e-13 	-1.90726e-33 	-4.25822e-14 0 	0 	0 4.09966e-13 	-6.95795e-35 	-7.58886e-14 0 	0 	0 2.3255e-13 	6.23761e-33 	-3.91972e-14 0 	0 	0 1.71286e-13 	-6.28379e-35 	-2.64549e-14 0 	0 	0 3.21284e-13 	-4.47129e-33 	-4.63011e-14 0 	0 	0 0 	0 	0 0 	0 	0 2.18346e-13 	4.13552e-33 	-2.49504e-14 0 	0 	0 0 	0 	0 0 	0 	0 -2.97123e-13 	0 	2.57202e-14 0 	0 	0 2.40646e-13 	0 	-1.83455e-14 0 	0 	0 -2.89644e-13 	3.23664e-33 	1.76477e-14 0 	0 	0 2.57663e-13 	2.6613e-33 	-1.29115e-14 0 	0 	0 4.22044e-14 	3.22026e-35 	-1.73485e-15 0 	0 	0 -2.73912e-13 	-4.64143e-34 	7.58714e-15 0 	0 	0 5.29572e-15 	-2.11915e-38 	-1.11037e-16 0 	0 	0
-4.21812e-13 	2.35349e-33 	1.39161e-13 -4.12837e-13 	2.30341e-33 	1.362e-13 0 	0 	0 -4.18063e-13 	4.18602e-34 	1.30828e-13 0 	0 	0 -4.14219e-13 	-1.28498e-34 	1.22056e-13 0 	0 	0 -2.95766e-13 	-1.06243e-35 	8.26546e-14 0 	0 	0 1.75447e-13 	5.02245e-36 	-4.64352e-14 0 	0 	0 -2.9689e-13 	8.36702e-36 	7.44016e-14 0 	0 	0 3.00608e-13 	5.93302e-34 	-7.11908e-14 0 	0 	0 -9.80533e-14 	5.42422e-37 	2.17213e-14 0 	0 	0 9.86584e-14 	-8.13383e-34 	-2.04519e-14 0 	0 	0 2.17504e-13 	-1.90726e-33 	-4.25822e-14 0 	0 	0 4.09966e-13 	-6.95795e-35 	-7.58886e-14 0 	0 	0 2.3255e-13 	6.23761e-33 	-3.91972e-14 0 	0 	0 1.71286e-13 	-6.28379e-35 	-2.64549e-14 0 	0 	0 3.21284e-13 	-4.47129e-33 	-4.63011e-14 0 	0 	0 0 	0 	0 0 	0 	0 2.18346e-13 	4.13552e-33 	-2.49504e-14 0 	0 	0 0 	0 	0 0 	0 	0 -2.97123e-13 	0 	2.57202e-14 0 	0 	0 2.40646e-13 	0 	-1.83455e-14 0 	0 	0 -2.89644e-13 	3.23664e-33 	1.76477e-14 0 	0 	0 2.57663e-13 	2.6613e-33 	-1.29115e-14 0 	0 	0 4.22044e-14 	3.22026e-35 	-1.73485e-15 0 	0 	0 -2.73912e-13 	-4.64143e-34 	7.58714e-15 0 	0 	0 5.29572e-15 	-2.11915e-38 	-1.11037e-16 0 	0 	0 9.3823e-15 	0 	-1.17977e-16 0 	0 	0
-4.22657e-13 	4.23202e-34 	1.32265e-13 -4.18063e-13 	4.18602e-34 	1.30828e-13 0 	0 	0 -4.14219e-13 	-1.28498e-34 	1.22056e-13 0 	0 	0 -2.95766e-13 	-1.06243e-35 	8.26546e-14 0 	0 	0 1.75447e-13 	5.02245e-36 	-4.64352e-14 0 	0 	0 -2.9689e-13 	8.36702e-36 	7.44016e-14 0 	0 	0 3.00608e-13 	5.93302e-34 	-7.11908e-14 0 	0 	0 -9.80533e-14 	5.42422e-37 	2.17213e-14 0 	0 	0 9.86584e-14 	-8.13383e-34 	-2.04519e-14 0 	0 	0 2.17504e-13 	-1.90726e-33 	-4.25822e-14 0 	0 	0 4.09966e-13 	-6.95795e-35 	-7.58886e-14 0 	0 	0 2.3255e-13 	6.23761e-33 	-3.91972e-14 0 	0 	0 1.71286e-13 	-6.28379e-35 	-2.64549e-14 0 	0 	0 3.21284e-13 	-4.47129e-33 	-4.63011e-14 0 	0 	0 0 	0 	0 0 	0 	0 2.18346e-13 	4.13552e-33 	-2.49504e-14 0 	0 	0 0 	0 	0 0 	0 	0 -2.97123e-13 	0 	2.57202e-14 0 	0 	0 2.40646e-13 	0 	-1.83455e-14 0 	0 	0 -2.89644e-13 	3.23664e-33 	1.76477e-14 0 	0 	0 2.57663e-13 	2.6613e-33 	-1.29115e-14 0 	0 	0 4.22044e-14 	3.22026e-35 	-1.73485e-15 0 	0 	0 -2.73912e-13 	-4.64143e-34 	7.58714e-15 0 	0 	0 5.29572e-15 	-2.11915e-38 	-1.11037e-16 0 	0 	0 9.3823e-15 	0 	-1.17977e-16 0 	0 	0 2.83948e-13 	-4.20825e-33 	-3.61988e-16 0 	0 	0
-2.79249e-14 	-8.66278e-36 	8.22847e-15 0 	0 	0 2.81682e-13 	1.01184e-35 	-7.87186e-14 0 	0 	0 -1.70705e-13 	-4.88671e-36 	4.51802e-14 0 	0 	0 3.06467e-13 	-8.63693e-36 	-7.68017e-14 0 	0 	0 -3.10305e-13 	-6.12441e-34 	7.34873e-14 0 	0 	0 1.17664e-13 	-6.50907e-37 	-2.60655e-14 0 	0 	0 -9.86584e-14 	8.13383e-34 	2.04519e-14 0 	0 	0 -2.17504e-13 	1.90726e-33 	4.25822e-14 0 	0 	0 -3.99967e-13 	6.78825e-35 	7.40377e-14 0 	0 	0 -4.85323e-13 	-1.30176e-32 	8.18028e-14 0 	0 	0 -2.01513e-13 	7.3927e-35 	3.11234e-14 0 	0 	0 -3.01203e-13 	4.19183e-33 	4.34073e-14 0 	0 	0 0 	0 	0 0 	0 	0 -2.18346e-13 	-4.13552e-33 	2.49504e-14 0 	0 	0 0 	0 	0 0 	0 	0 3.06708e-13 	0 	-2.65499e-14 0 	0 	0 -2.35927e-13 	0 	1.79857e-14 0 	0 	0 2.87327e-13 	-3.21074e-33 	-1.75065e-14 0 	0 	0 -3.29989e-13 	-3.40833e-33 	1.65358e-14 0 	0 	0 -3.99831e-14 	-3.05077e-35 	1.64354e-15 0 	0 	0 2.73912e-13 	4.64143e-34 	-7.58714e-15 0 	0 	0 -4.76615e-15 	1.90723e-38 	9.99337e-17 0 	0 	0 -1.04248e-14 	0 	1.31086e-16 0 	0 	0 -2.85991e-13 	4.23852e-33 	3.64592e-16 0 	0 	0 2.80299e-13 	-2.58614e-34 	1.67717e-15 0 	0 	0
-2.95766e-13 	-1.06243e-35 	8.26546e-14 0 	0 	0 -1.70705e-13 	-4.88671e-36 	4.51802e-14 0 	0 	0 3.06467e-13 	-8.63693e-36 	-7.68017e-14 0 	0 	0 -3.10305e-13 	-6.12441e-34 	7.34873e-14 0 	0 	0 1.17664e-13 	-6.50907e-37 	-2.60655e-14 0 	0 	0 -9.86584e-14 	8.13383e-34 	2.04519e-14 0 	0 	0 -2.17504e-13 	1.90726e-33 	4.25822e-14 0 	0 	0 -3.99967e-13 	6.78825e-35 	7.40377e-14 0 	0 	0 -4.85323e-13 	-1.30176e-32 	8.18028e-14 0 	0 	0 -2.01513e-13 	7.3927e-35 	3.11234e-14 0 	0 	0 -3.01203e-13 	4.19183e-33 	4.34073e-14 0 	0 	0 0 	0 	0 0 	0 	0 -2.18346e-13 	-4.13552e-33 	2.49504e-14 0 	0 	0 0 	0 	0 0 	0 	0 3.06708e-13 	0 	-2.65499e-14 0 	0 	0 -2.35927e-13 	0 	1.79857e-14 0 	0 	0 2.87327e-13 	-3.21074e-33 	-1.75065e-14 0 	0 	0 -3.29989e-13 	-3.40833e-33 	1.65358e-14 0 	0 	0 -3.99831e-14 	-3.05077e-35 	1.64354e-15 0 	0 	0 2.73912e-13 	4.64143e-34 	-7.58714e-15 0 	0 	0 -4.76615e-15 	1.90723e-38 	9.99337e-17 0 	0 	0 -1.04248e-14 	0 	1.31086e-16 0 	0 	0 -2.85991e-13 	4.23852e-33 	3.64592e-16 0 	0 	0 2.80299e-13 	-2.58614e-34 	1.67717e-15 0 	0 	0 0 	0 	0 0 	0 	0
-3.50893e-13 	-1.00449e-35 	9.28703e-14 0 	0 	0 3.06467e-13 	-8.63693e-36 	-7.68017e-14 0 	0 	0 -3.10305e-13 	-6.12441e-34 	7.34873e-14 0 	0 	0 1.17664e-13 	-6.50907e-37 	-2.60655e-14 0 	0 	0 -9.86584e-14 	8.13383e-34 	2.04519e-14 0 	0 	0 -2.17504e-13 	1.90726e-33 	4.25822e-14 0 	0 	0 -3.99967e-13 	6.78825e-35 	7.40377e-14 0 	0 	0 -4.85323e-13 	-1.30176e-32 	8.18028e-14 0 	0 	0 -2.01513e-13 	7.3927e-35 	3.11234e-14 0 	0 	0 -3.01203e-13 	4.19183e-33 	4.34073e-14 0 	0 	0 0 	0 	0 0 	0 	0 -2.18346e-13 	-4.13552e-33 	2.49504e-14 0 	0 	0 0 	0 	0 0 	0 	0 3.06708e-13 	0 	-2.65499e-14 0 	0 	0 -2.35927e-13 	0 	1.79857e-14 0 	0 	0 2.87327e-13 	-3.21074e-33 	-1.75065e-14 0 	0 	0 -3.29989e-13 	-3.40833e-33 	1.65358e-14 0 	0 	0 -3.99831e-14 	-3.05077e-35 	1.64354e-15 0 	0 	0 2.73912e-13 	4.64143e-34 	-7.58714e-15 0 	0 	0 -4.76615e-15 	1.90723e-38 	9.99337e-17 0 	0 	0 -1.04248e-14 	0 	1.31086e-16 0 	0 	0 -2.85991e-13 	4.23852e-33 	3.64592e-16 0 	0 	0 2.80299e-13 	-2.58614e-34 	1.67717e-15 0 	0 	0 0 	0 	0 0 	0 	0 -6.0984e-14 	-1.7622e-33 	-1.25737e-15 0 	0 	0
4.78855e-14 	-1.34952e-36 	-1.20003e-14 0 	0 	0 -3.10305e-13 	-6.12441e-34 	7.34873e-14 0 	0 	0 1.17664e-13 	-6.50907e-37 	-2.60655e-14 0 	0 	0 -9.86584e-14 	8.13383e-34 	2.04519e-14 0 	0 	0 -2.17504e-13 	1.90726e-33 	4.25822e-14 0 	0 	0 -3.99967e-13 	6.78825e-35 	7.40377e-14 0 	0 	0 -4.85323e-13 	-1.30176e-32 	8.18028e-14 0 	0 	0 -2.01513e-13 	7.3927e-35 	3.11234e-14 0 	0 	0 -3.01203e-13 	4.19183e-33 	4.34073e-14 0 	0 	0 0 	0 	0 0 	0 	0 -2.18346e-13 	-4.13552e-33 	2.49504e-14 0 	0 	0 0 	0 	0 0 	0 	0 3.06708e-13 	0 	-2.65499e-14 0 	0 	0 -2.35927e-13 	0 	1.79857e-14 0 	0 	0 2.87327e-13 	-3.21074e-33 	-1.75065e-14 0 	0 	0 -3.29989e-13 	-3.40833e-33 	1.65358e-14 0 	0 	0 -3.99831e-14 	-3.05077e-35 	1.64354e-15 0 	0 	0 2.73912e-13 	4.64143e-34 	-7.58714e-15 0 	0 	0 -4.76615e-15 	1.90723e-38 	9.99337e-17 0 	0 	0 -1.04248e-14 	0 	1.31086e-16 0 	0 	0 -2.85991e-13 	4.23852e-33 	3.64592e-16 0 	0 	0 2.80299e-13 	-2.58614e-34 	1.67717e-15 0 	0 	0 0 	0 	0 0 	0 	0 -6.0984e-14 	-1.7622e-33 	-1.25737e-15 0 	0 	0 -1.6604e-13 	-3.12986e-34 	-3.94921e-15 0 	0 	0
3.00608e-13 	5.93302e-34 	-7.11908e-14 0 	0 	0 1.17664e-13 	-6.50907e-37 	-2.60655e-14 0 	0 	0 -9.86584e-14 	8.13383e-34 	2.04519e-14 0 	0 	0 -2.17504e-13 	1.90726e-33 	4.25822e-14 0 	0 	0 -3.99967e-13 	6.78825e-35 	7.40377e-14 0 	0 	0 -4.85323e-13 	-1.30176e-32 	8.18028e-14 0 	0 	0 -2.01513e-13 	7.3927e-35 	3.11234e-14 0 	0 	0 -3.01203e-13 	4.19183e-33 	4.34073e-14 0 	0 	0 0 	0 	0 0 	0 	0 -2.18346e-13 	-4.13552e-33 	2.49504e-14 0 	0 	0 0 	0 	0 0 	0 	0 3.06708e-13 	0 	-2.65499e-14 0 	0 	0 -2.35927e-13 	0 	1.79857e-14 0 	0 	0 2.87327e-13 	-3.21074e-33 	-1.75065e-14 0 	0 	0 -3.29989e-13 	-3.40833e-33 	1.65358e-14 0 	0 	0 -3.99831e-14 	-3.05077e-35 	1.64354e-15 0 	0 	0 2.73912e-13 	4.64143e-34 	-7.58714e-15 0 	0 	0 -4.76615e-15 	1.90723e-38 	9.99337e-17 0 	0 	0 -1.04248e-14 	0 	1.31086e-16 0 	0 	0 -2.85991e-13 	4.23852e-33 	3.64592e-16 0 	0 	0 2.80299e-13 	-2.58614e-34 	1.67717e-15 0 	0 	0 0 	0 	0 0 	0 	0 -6.0984e-14 	-1.7622e-33 	-1.25737e-15 0 	0 	0 -1.6604e-13 	-3.12986e-34 	-3.94921e-15 0 	0 	0 3.06681e-13 	-9.95159e-33 	9.77303e-15 0 	0 	0
-9.80533e-14 	5.42422e-37 	2.17213e-14 0 	0 	0 -9.86584e-14 	8.13383e-34 	2.04519e-14 0 	0 	0 -2.17504e-13 	1.90726e-33 	4.25822e-14 0 	0 	0 -3.99967e-13 	6.78825e-35 	7.40377e-14 0 	0 	0 -4.85323e-13 	-1.30176e-32 	8.18028e-14 0 	0 	0 -2.01513e-13 	7.3927e-35 	3.11234e-14 0 	0 	0 -3.01203e-13 	4.19183e-33 	4.34073e-14 0 	0 	0 0 	0 	0 0 	0 	0 -2.18346e-13 	-4.13552e-33 	2.49504e-14 0 	0 	0 0 	0 	0 0 	0 	0 3.06708e-13 	0 	-2.65499e-14 0 	0 	0 -2.35927e-13 	0 	1.79857e-14 0 	0 	0 2.87327e-13 	-3.21074e-33 	-1.75065e-14 0 	0 	0 -3.29989e-13 	-3.40833e-33 	1.65358e-14 0 	0 	0 -3.99831e-14 	-3.05077e-35 	1.64354e-15 0 	0 	0 2.73912e-13 	4.64143e-34 	-7.58714e-15 0 	0 	0 -4.76615e-15 	1.90723e-38 	9.99337e-17 0 	0 	0 -1.04248e-14 	0 	1.31086e-16 0 	0 	0 -2.85991e-13 	4.23852e-33 	3.64592e-16 0 	0 	0 2.80299e-13 	-2.58614e-34 	1.67717e-15 0 	0 	0 0 	0 	0 0 	0 	0 -6.0984e-14 	-1.7622e-33 	-1.25737e-15 0 	0 	0 -1.6604e-13 	-3.12986e-34 	-3.94921e-15 0 	0 	0 3.06681e-13 	-9.95159e-33 	9.77303e-15 0 	0 	0 8.862e-14 	0 	3.40367e-15 0 	0 	0
-8.28731e-13 	6.83242e-33 	1.71796e-13 0 	0 	0 -2.17504e-13 	1.90726e-33 	4.25822e-14 0 	0 	0 -3.99967e-13 	6.78825e-35 	7.40377e-14 0 	0 	0 -4.85323e-13 	-1.30176e-32 	8.18028e-14 0 	0 	0 -2.01513e-13 	7.3927e-35 	3.11234e-14 0 	0 	0 -3.01203e-13 	4.19183e-33 	4.34073e-14 0 	0 	0 0 	0 	0 0 	0 	0 -2.18346e-13 	-4.13552e-33 	2.49504e-14 0 	0 	0 0 	0 	0 0 	0 	0 3.06708e-13 	0 	-2.65499e-14 0 	0 	0 -2.35927e-13 	0 	1.79857e-14 0 	0 	0 2.87327e-13 	-3.21074e-33 	-1.75065e-14 0 	0 	0 -3.29989e-13 	-3.40833e-33 	1.65358e-14 0 	0 	0 -3.99831e-14 	-3.05077e-35 	1.64354e-15 0 	0 	0 2.73912e-13 	4.64143e-34 	-7.58714e-15 0 	0 	0 -4.76615e-15 	1.90723e-38 	9.99337e-17 0 	0 	0 -1.04248e-14 	0 	1.31086e-16 0 	0 	0 -2.85991e-13 	4.23852e-33 	3.64592e-16 0 	0 	0 2.80299e-13 	-2.58614e-34 	1.67717e-15 0 	0 	0 0 	0 	0 0 	0 	0 -6.0984e-14 	-1.7622e-33 	-1.25737e-15 0 	0 	0 -1.6604e-13 	-3.12986e-34 	-3.94921e-15 0 	0 	0 3.06681e-13 	-9.95159e-33 	9.77303e-15 0 	0 	0 8.862e-14 	0 	3.40367e-15 0 	0 	0 1.30879e-13 	-3.93683e-33 	5.89386e-15 0 	0 	0
-7.11833e-13 	6.24194e-33 	1.3936e-13 0 	0 	0 -3.99967e-13 	6.78825e-35 	7.40377e-14 0 	0 	0 -4.85323e-13 	-1.30176e-32 	8.18028e-14 0 	0 	0 -2.01513e-13 	7.3927e-35 	3.11234e-14 0 	0 	0 -3.01203e-13 	4.19183e-33 	4.34073e-14 0 	0 	0 0 	0 	0 0 	0 	0 -2.18346e-13 	-4.13552e-33 	2.49504e-14 0 	0 	0 0 	0 	0 0 	0 	0 3.06708e-13 	0 	-2.65499e-14 0 	0 	0 -2.35927e-13 	0 	1.79857e-14 0 	0 	0 2.87327e-13 	-3.21074e-33 	-1.75065e-14 0 	0 	0 -3.29989e-13 	-3.40833e-33 	1.65358e-14 0 	0 	0 -3.99831e-14 	-3.05077e-35 	1.64354e-15 0 	0 	0 2.73912e-13 	4.64143e-34 	-7.58714e-15 0 	0 	0 -4.76615e-15 	1.90723e-38 	9.99337e-17 0 	0 	0 -1.04248e-14 	0 	1.31086e-16 0 	0 	0 -2.85991e-13 	4.23852e-33 	3.64592e-16 0 	0 	0 2.80299e-13 	-2.58614e-34 	1.67717e-15 0 	0 	0 0 	0 	0 0 	0 	0 -6.0984e-14 	-1.7622e-33 	-1.25737e-15 0 	0 	0 -1.6604e-13 	-3.12986e-34 	-3.94921e-15 0 	0 	0 3.06681e-13 	-9.95159e-33 	9.77303e-15 0 	0 	0 8.862e-14 	0 	3.40367e-15 0 	0 	0 1.30879e-13 	-3.93683e-33 	5.89386e-15 0 	0 	0 -3.11149e-13 	8.76751e-33 	-1.49869e-14 0 	0 	0
-5.39956e-13 	9.16413e-35 	9.99508e-14 0 	0 	0 -4.85323e-13 	-1.30176e-32 	8.18028e-14 0 	0 	0 -2.01513e-13 	7.3927e-35 	3.11234e-14 0 	0 	0 -3.01203e-13 	4.19183e-33 	4.34073e-14 0 	0 	0 0 	0 	0 0 	0 	0 -2.18346e-13 	-4.13552e-33 	2.49504e-14 0 	0 	0 0 	0 	0 0 	0 	0 3.06708e-13 	0 	-2.65499e-14 0 	0 	0 -2.35927e-13 	0 	1.79857e-14 0 	0 	0 2.87327e-13 	-3.21074e-33 	-1.75065e-14 0 	0 	0 -3.29989e-13 	-3.40833e-33 	1.65358e-14 0 	0 	0 -3.99831e-14 	-3.05077e-35 	1.64354e-15 0 	0 	0 2.73912e-13 	4.64143e-34 	-7.58714e-15 0 	0 	0 -4.76615e-15 	1.90723e-38 	9.99337e-17 0 	0 	0 -1.04248e-14 	0 	1.31086e-16 0 	0 	0 -2.85991e-13 	4.23852e-33 	3.64592e-16 0 	0 	0 2.80299e-13 	-2.58614e-34 	1.67717e-15 0 	0 	0 0 	0 	0 0 	0 	0 -6.0984e-14 	-1.7622e-33 	-1.25737e-15 0 	0 	0 -1.6604e-13 	-3.12986e-34 	-3.94921e-15 0 	0 	0 3.06681e-13 	-9.95159e-33 	9.77303e-15 0 	0 	0 8.862e-14 	0 	3.40367e-15 0 	0 	0 1.30879e-13 	-3.93683e-33 	5.89386e-15 0 	0 	0 -3.11149e-13 	8.76751e-33 	-1.49869e-14 0 	0 	0 3.25339e-13 	-9.15886e-33 	1.74335e-14 0 	0 	0
-2.3255e-13 	-6.23761e-33 	3.91972e-14 0 	0 	0 -2.01513e-13 	7.3927e-35 	3.11234e-14 0 	0 	0 -3.01203e-13 	4.19183e-33 	4.34073e-14 0 	0 	0 0 	0 	0 0 	0 	0 -2.18346e-13 	-4.13552e-33 	2.49504e-14 0 	0 	0 0 	0 	0 0 	0 	0 3.06708e-13 	0 	-2.65499e-14 0 	0 	0 -2.35927e-13 	0 	1.79857e-14 0 	0 	0 2.87327e-13 	-3.21074e-33 	-1.75065e-14 0 	0 	0 -3.29989e-13 	-3.40833e-33 	1.65358e-14 0 	0 	0 -3.99831e-14 	-3.05077e-35 	1.64354e-15 0 	0 	0 2.73912e-13 	4.64143e-34 	-7.58714e-15 0 	0 	0 -4.76615e-15 	1.90723e-38 	9.99337e-17 0 	0 	0 -1.04248e-14 	0 	1.31086e-16 0 	0 	0 -2.85991e-13 	4.23852e-33 	3.64592e-16 0 	0 	0 2.80299e-13 	-2.58614e-34 	1.67717e-15 0 	0 	0 0 	0 	0 0 	0 	0 -6.0984e-14 	-1.7622e-33 	-1.25737e-15 0 	0 	0 -1.6604e-13 	-3.12986e-34 	-3.94921e-15 0 	0 	0 3.06681e-13 	-9.95159e-33 	9.77303e-15 0 	0 	0 8.862e-14 	0 	3.40367e-15 0 	0 	0 1.30879e-13 	-3.93683e-33 	5.89386e-15 0 	0 	0 -3.11149e-13 	8.76751e-33 	-1.49869e-14 0 	0 	0 3.25339e-13 	-9.15886e-33 	1.74335e-14 0 	0 	0 -3.3209e-13 	-1.77361e-32 	-1.93516e-14 0 	0 	0
-3.72799e-13 	1.36765e-34 	5.75782e-14 0 	0 	0 -3.01203e-13 	4.19183e-33 	4.34073e-14 0 	0 	0 0 	0 	0 0 	0 	0 -2.18346e-13 	-4.13552e-33 	2.49504e-14 0 	0 	0 0 	0 	0 0 	0 	0 3.06708e-13 	0 	-2.65499e-14 0 	0 	0 -2.35927e-13 	0 	1.79857e-14 0 	0 	0 2.87327e-13 	-3.21074e-33 	-1.75065e-14 0 	0 	0 -3.29989e-13 	-3.40833e-33 	1.65358e-14 0 	0 	0 -3.99831e-14 	-3.05077e-35 	1.64354e-15 0 	0 	0 2.73912e-13 	4.64143e-34 	-7.58714e-15 0 	0 	0 -4.76615e-15 	1.90723e-38 	9.99337e-17 0 	0 	0 -1.04248e-14 	0 	1.31086e-16 0 	0 	0 -2.85991e-13 	4.23852e-33 	3.64592e-16 0 	0 	0 2.80299e-13 	-2.58614e-34 	1.67717e-15 0 	0 	0 0 	0 	0 0 	0 	0 -6.0984e-14 	-1.7622e-33 	-1.25737e-15 0 	0 	0 -1.6604e-13 	-3.12986e-34 	-3.94921e-15 0 	0 	0 3.06681e-13 	-9.95159e-33 	9.77303e-15 0 	0 	0 8.862e-14 	0 	3.40367e-15 0 	0 	0 1.30879e-13 	-3.93683e-33 	5.89386e-15 0 	0 	0 -3.11149e-13 	8.76751e-33 	-1.49869e-14 0 	0 	0 3.25339e-13 	-9.15886e-33 	1.74335e-14 0 	0 	0 -3.3209e-13 	-1.77361e-32 	-1.93516e-14 0 	0 	0 -2.16469e-13 	-8.83329e-35 	-1.35264e-14 0 	0 	0
7.22888e-13 	-1.00604e-32 	-1.04177e-13 0 	0 	0 0 	0 	0 0 	0 	0 -2.18346e-13 	-4.13552e-33 	2.49504e-14 0 	0 	0 0 	0 	0 0 	0 	0 3.06708e-13 	0 	-2.65499e-14 0 	0 	0 -2.35927e-13 	0 	1.79857e-14 0 	0 	0 2.87327e-13 	-3.21074e-33 	-1.75065e-14 0 	0 	0 -3.29989e-13 	-3.40833e-33 	1.65358e-14 0 	0 	0 -3.99831e-14 	-3.05077e-35 	1.64354e-15 0 	0 	0 2.73912e-13 	4.64143e-34 	-7.58714e-15 0 	0 	0 -4.76615e-15 	1.90723e-38 	9.99337e-17 0 	0 	0 -1.04248e-14 	0 	1.31086e-16 0 	0 	0 -2.85991e-13 	4.23852e-33 	3.64592e-16 0 	0 	0 2.80299e-13 	-2.58614e-34 	1.67717e-15 0 	0 	0 0 	0 	0 0 	0 	0 -6.0984e-14 	-1.7622e-33 	-1.25737e-15 0 	0 	0 -1.6604e-13 	-3.12986e-34 	-3.94921e-15 0 	0 	0 3.06681e-13 	-9.95159e-33 	9.77303e-15 0 	0 	0 8.862e-14 	0 	3.40367e-15 0 	0 	0 1.30879e-13 	-3.93683e-33 	5.89386e-15 0 	0 	0 -3.11149e-13 	8.76751e-33 	-1.49869e-14 0 	0 	0 3.25339e-13 	-9.15886e-33 	1.74335e-14 0 	0 	0 -3.3209e-13 	-1.77361e-32 	-1.93516e-14 0 	0 	0 -2.16469e-13 	-8.83329e-35 	-1.35264e-14 0 	0 	0 1.87809e-13 	9.06718e-33 	1.2503e-14 0 	0 	0
0 	0 	0 0 	0 	0 -2.18346e-13 	-4.13552e-33 	2.49504e-14 0 	0 	0 0 	0 	0 0 	0 	0 3.06708e-13 	0 	-2.65499e-14 0 	0 	0 -2.35927e-13 	0 	1.79857e-14 0 	0 	0 2.87327e-13 	-3.21074e-33 	-1.75065e-14 0 	0 	0 -3.29989e-13 	-3.40833e-33 	1.65358e-14 0 	0 	0 -3.99831e-14 	-3.05077e-35 	1.64354e-15 0 	0 	0 2.73912e-13 	4.64143e-34 	-7.58714e-15 0 	0 	0 -4.76615e-15 	1.90723e-38 	9.99337e-17 0 	0 	0 -1.04248e-14 	0 	1.31086e-16 0 	0 	0 -2.85991e-13 	4.23852e-33 	3.64592e-16 0 	0 	0 2.80299e-13 	-2.58614e-34 	1.67717e-15 0 	0 	0 0 	0 	0 0 	0 	0 -6.0984e-14 	-1.7622e-33 	-1.25737e-15 0 	0 	0 -1.6604e-13 	-3.12986e-34 	-3.94921e-15 0 	0 	0 3.06681e-13 	-9.95159e-33 	9.77303e-15 0 	0 	0 8.862e-14 	0 	3.40367e-15 0 	0 	0 1.30879e-13 	-3.93683e-33 	5.89386e-15 0 	0 	0 -3.11149e-13 	8.76751e-33 	-1.49869e-14 0 	0 	0 3.25339e-13 	-9.15886e-33 	1.74335e-14 0 	0 	0 -3.3209e-13 	-1.77361e-32 	-1.93516e-14 0 	0 	0 -2.16469e-13 	-8.83329e-35 	-1.35264e-14 0 	0 	0 1.87809e-13 	9.06718e-33 	1.2503e-14 0 	0 	0 -2.88813e-14 	-1.33951e-33 	-2.04674e-15 0 	0 	0
-7.14587e-13 	-1.35344e-32 	8.16558e-14 0 	0 	0 0 	0 	0 0 	0 	0 3.06708e-13 	0 	-2.65499e-14 0 	0 	0 -2.35927e-13 	0 	1.79857e-14 0 	0 	0 2.87327e-13 	-3.21074e-33 	-1.75065e-14 0 	0 	0 -3.29989e-13 	-3.40833e-33 	1.65358e-14 0 	0 	0 -3.99831e-14 	-3.05077e-35 	1.64354e-15 0 	0 	0 2.73912e-13 	4.64143e-34 	-7.58714e-15 0 	0 	0 -4.76615e-15 	1.90723e-38 	9.99337e-17 0 	0 	0 -1.04248e-14 	0 	1.31086e-16 0 	0 	0 -2.85991e-13 	4.23852e-33 	3.64592e-16 0 	0 	0 2.80299e-13 	-2.58614e-34 	1.67717e-15 0 	0 	0 0 	0 	0 0 	0 	0 -6.0984e-14 	-1.7622e-33 	-1.25737e-15 0 	0 	0 -1.6604e-13 	-3.12986e-34 	-3.94921e-15 0 	0 	0 3.06681e-13 	-9.95159e-33 	9.77303e-15 0 	0 	0 8.862e-14 	0 	3.40367e-15 0 	0 	0 1.30879e-13 	-3.93683e-33 	5.89386e-15 0 	0 	0 -3.11149e-13 	8.76751e-33 	-1.49869e-14 0 	0 	0 3.25339e-13 	-9.15886e-33 	1.74335e-14 0 	0 	0 -3.3209e-13 	-1.77361e-32 	-1.93516e-14 0 	0 	0 -2.16469e-13 	-8.83329e-35 	-1.35264e-14 0 	0 	0 1.87809e-13 	9.06718e-33 	1.2503e-14 0 	0 	0 -2.88813e-14 	-1.33951e-33 	-2.04674e-15 0 	0 	0 -2.31611e-13 	1.55438e-34 	-1.70021e-14 0 	0 	0
-6.74884e-13 	-5.00351e-32 	6.86348e-14 0 	0 	0 3.06708e-13 	0 	-2.65499e-14 0 	0 	0 -2.35927e-13 	0 	1.79857e-14 0 	0 	0 2.87327e-13 	-3.21074e-33 	-1.75065e-14 0 	0 	0 -3.29989e-13 	-3.40833e-33 	1.65358e-14 0 	0 	0 -3.99831e-14 	-3.05077e-35 	1.64354e-15 0 	0 	0 2.73912e-13 	4.64143e-34 	-7.58714e-15 0 	0 	0 -4.76615e-15 	1.90723e-38 	9.99337e-17 0 	0 	0 -1.04248e-14 	0 	1.31086e-16 0 	0 	0 -2.85991e-13 	4.23852e-33 	3.64592e-16 0 	0 	0 2.80299e-13 	-2.58614e-34 	1.67717e-15 0 	0 	0 0 	0 	0 0 	0 	0 -6.0984e-14 	-1.7622e-33 	-1.25737e-15 0 	0 	0 -1.6604e-13 	-3.12986e-34 	-3.94921e-15 0 	0 	0 3.06681e-13 	-9.95159e-33 	9.77303e-15 0 	0 	0 8.862e-14 	0 	3.40367e-15 0 	0 	0 1.30879e-13 	-3.93683e-33 	5.89386e-15 0 	0 	0 -3.11149e-13 	8.76751e-33 	-1.49869e-14 0 	0 	0 3.25339e-13 	-9.15886e-33 	1.74335e-14 0 	0 	0 -3.3209e-13 	-1.77361e-32 	-1.93516e-14 0 	0 	0 -2.16469e-13 	-8.83329e-35 	-1.35264e-14 0 	0 	0 1.87809e-13 	9.06718e-33 	1.2503e-14 0 	0 	0 -2.88813e-14 	-1.33951e-33 	-2.04674e-15 0 	0 	0 -2.31611e-13 	1.55438e-34 	-1.70021e-14 0 	0 	0 0 	0 	0 0 	0 	0