# vtk DataFile Version 2.0
track0
ASCII
DATASET POLYDATA
POINTS 9421 float
0.0634193 -0.333333 -0.266338
0.0643872 -0.333333 -0.268059
0.065452 -0.333333 -0.269904
0.0675815 -0.333333 -0.273595
0.0687567 -0.333333 -0.275545
0.0711071 -0.333333 -0.279444
0.0724055 -0.333333 -0.281485
0.0750023 -0.333333 -0.285568
0.0764327 -0.333333 -0.287728
0.0792933 -0.333333 -0.292048
0.0808709 -0.333333 -0.29431
0.0840261 -0.333333 -0.298833
0.0857647 -0.333333 -0.301203
0.089242 -0.333333 -0.305944
0.0911575 -0.333333 -0.308422
0.0949885 -0.333333 -0.31338
0.0971013 -0.333333 -0.315937
0.101327 -0.333333 -0.321051
0.103655 -0.333333 -0.323685
0.108313 -0.333333 -0.328954
0.110879 -0.333333 -0.331656
0.116011 -0.333333 -0.33706
0.118834 -0.333333 -0.339876
0.124479 -0.333333 -0.34551
0.127592 -0.333333 -0.34832
0.133819 -0.333333 -0.353941
0.13725 -0.333333 -0.35673
0.144112 -0.333333 -0.362308
0.147887 -0.333333 -0.365139
0.155438 -0.333333 -0.370802
0.159597 -0.333333 -0.373566
0.167915 -0.333333 -0.379095
0.172496 -0.333333 -0.381718
0.181658 -0.333333 -0.386964
0.1867 -0.333333 -0.389493
0.196783 -0.333333 -0.394549
0.202124 -0.333333 -0.396725
0.212805 -0.333333 -0.401077
0.218145 -0.333333 -0.402968
0.228826 -0.333333 -0.40675
0.234171 -0.333333 -0.408169
0.24486 -0.333333 -0.411007
0.250205 -0.333333 -0.41213
0.260896 -0.333333 -0.414376
0.266242 -0.333333 -0.415219
0.276934 -0.333333 -0.416904
0.282281 -0.333333 -0.417364
0.292974 -0.333333 -0.418284
0.298321 -0.333333 -0.418549
0.309015 -0.333333 -0.419078
0.0665167 -0.333333 -0.27175
0.0675815 -0.333333 -0.273595
0.0687567 -0.333333 -0.275545
0.0711071 -0.333333 -0.279444
0.0724055 -0.333333 -0.281485
0.0750023 -0.333333 -0.285568
0.0764327 -0.333333 -0.287728
0.0792933 -0.333333 -0.292048
0.0808709 -0.333333 -0.29431
0.0840261 -0.333333 -0.298833
0.0857647 -0.333333 -0.301203
0.089242 -0.333333 -0.305944
0.0911575 -0.333333 -0.308422
0.0949885 -0.333333 -0.31338
0.0971013 -0.333333 -0.315937
0.101327 -0.333333 -0.321051
0.103655 -0.333333 -0.323685
0.108313 -0.333333 -0.328954
0.110879 -0.333333 -0.331656
0.116011 -0.333333 -0.33706
0.118834 -0.333333 -0.339876
0.124479 -0.333333 -0.34551
0.127592 -0.333333 -0.34832
0.133819 -0.333333 -0.353941
0.13725 -0.333333 -0.35673
0.144112 -0.333333 -0.362308
0.147887 -0.333333 -0.365139
0.155438 -0.333333 -0.370802
0.159597 -0.333333 -0.373566
0.167915 -0.333333 -0.379095
0.172496 -0.333333 -0.381718
0.181658 -0.333333 -0.386964
0.1867 -0.333333 -0.389493
0.196783 -0.333333 -0.394549
0.202124 -0.333333 -0.396725
0.212805 -0.333333 -0.401077
0.218145 -0.333333 -0.402968
0.228826 -0.333333 -0.40675
0.234171 -0.333333 -0.408169
0.24486 -0.333333 -0.411007
0.250205 -0.333333 -0.41213
0.260896 -0.333333 -0.414376
0.266242 -0.333333 -0.415219
0.276934 -0.333333 -0.416904
0.282281 -0.333333 -0.417364
0.292974 -0.333333 -0.418284
0.298321 -0.333333 -0.418549
0.309015 -0.333333 -0.419078
0.314361 -0.333333 -0.419083
0.325055 -0.333333 -0.419091
0.0699319 -0.333333 -0.277494
0.0711071 -0.333333 -0.279444
0.0724055 -0.333333 -0.281485
0.0750023 -0.333333 -0.285568
0.0764327 -0.333333 -0.287728
0.0792933 -0.333333 -0.292048
0.0808709 -0.333333 -0.29431
0.0840261 -0.333333 -0.298833
0.0857647 -0.333333 -0.301203
0.089242 -0.333333 -0.305944
0.0911575 -0.333333 -0.308422
0.0949885 -0.333333 -0.31338
0.0971013 -0.333333 -0.315937
0.101327 -0.333333 -0.321051
0.103655 -0.333333 -0.323685
0.108313 -0.333333 -0.328954
0.110879 -0.333333 -0.331656
0.116011 -0.333333 -0.33706
0.118834 -0.333333 -0.339876
0.124479 -0.333333 -0.34551
0.127592 -0.333333 -0.34832
0.133819 -0.333333 -0.353941
0.13725 -0.333333 -0.35673
0.144112 -0.333333 -0.362308
0.147887 -0.333333 -0.365139
0.155438 -0.333333 -0.370802
0.159597 -0.333333 -0.373566
0.167915 -0.333333 -0.379095
0.172496 -0.333333 -0.381718
0.181658 -0.333333 -0.386964
0.1867 -0.333333 -0.389493
0.196783 -0.333333 -0.394549
0.202124 -0.333333 -0.396725
0.212805 -0.333333 -0.401077
0.218145 -0.333333 -0.402968
0.228826 -0.333333 -0.40675
0.234171 -0.333333 -0.408169
0.24486 -0.333333 -0.411007
0.250205 -0.333333 -0.41213
0.260896 -0.333333 -0.414376
0.266242 -0.333333 -0.415219
0.276934 -0.333333 -0.416904
0.282281 -0.333333 -0.417364
0.292974 -0.333333 -0.418284
0.298321 -0.333333 -0.418549
0.309015 -0.333333 -0.419078
0.314361 -0.333333 -0.419083
0.325055 -0.333333 -0.419091
0.330401 -0.333333 -0.418804
0.341094 -0.333333 -0.41823
0.0737039 -0.333333 -0.283527
0.0750023 -0.333333 -0.285568
0.0764327 -0.333333 -0.287728
0.0792933 -0.333333 -0.292048
0.0808709 -0.333333 -0.29431
0.0840261 -0.333333 -0.298833
0.0857647 -0.333333 -0.301203
0.089242 -0.333333 -0.305944
0.0911575 -0.333333 -0.308422
0.0949885 -0.333333 -0.31338
0.0971013 -0.333333 -0.315937
0.101327 -0.333333 -0.321051
0.103655 -0.333333 -0.323685
0.108313 -0.333333 -0.328954
0.110879 -0.333333 -0.331656
0.116011 -0.333333 -0.33706
0.118834 -0.333333 -0.339876
0.124479 -0.333333 -0.34551
0.127592 -0.333333 -0.34832
0.133819 -0.333333 -0.353941
0.13725 -0.333333 -0.35673
0.144112 -0.333333 -0.362308
0.147887 -0.333333 -0.365139
0.155438 -0.333333 -0.370802
0.159597 -0.333333 -0.373566
0.167915 -0.333333 -0.379095
0.172496 -0.333333 -0.381718
0.181658 -0.333333 -0.386964
0.1867 -0.333333 -0.389493
0.196783 -0.333333 -0.394549
0.202124 -0.333333 -0.396725
0.212805 -0.333333 -0.401077
0.218145 -0.333333 -0.402968
0.228826 -0.333333 -0.40675
0.234171 -0.333333 -0.408169
0.24486 -0.333333 -0.411007
0.250205 -0.333333 -0.41213
0.260896 -0.333333 -0.414376
0.266242 -0.333333 -0.415219
0.276934 -0.333333 -0.416904
0.282281 -0.333333 -0.417364
0.292974 -0.333333 -0.418284
0.298321 -0.333333 -0.418549
0.309015 -0.333333 -0.419078
0.314361 -0.333333 -0.419083
0.325055 -0.333333 -0.419091
0.330401 -0.333333 -0.418804
0.341094 -0.333333 -0.41823
0.346439 -0.333333 -0.417748
0.357131 -0.333333 -0.416784
0.077863 -0.333333 -0.289888
0.0792933 -0.333333 -0.292048
0.0808709 -0.333333 -0.29431
0.0840261 -0.333333 -0.298833
0.0857647 -0.333333 -0.301203
0.089242 -0.333333 -0.305944
0.0911575 -0.333333 -0.308422
0.0949885 -0.333333 -0.31338
0.0971013 -0.333333 -0.315937
0.101327 -0.333333 -0.321051
0.103655 -0.333333 -0.323685
0.108313 -0.333333 -0.328954
0.110879 -0.333333 -0.331656
0.116011 -0.333333 -0.33706
0.118834 -0.333333 -0.339876
0.124479 -0.333333 -0.34551
0.127592 -0.333333 -0.34832
0.133819 -0.333333 -0.353941
0.13725 -0.333333 -0.35673
0.144112 -0.333333 -0.362308
0.147887 -0.333333 -0.365139
0.155438 -0.333333 -0.370802
0.159597 -0.333333 -0.373566
0.167915 -0.333333 -0.379095
0.172496 -0.333333 -0.381718
0.181658 -0.333333 -0.386964
0.1867 -0.333333 -0.389493
0.196783 -0.333333 -0.394549
0.202124 -0.333333 -0.396725
0.212805 -0.333333 -0.401077
0.218145 -0.333333 -0.402968
0.228826 -0.333333 -0.40675
0.234171 -0.333333 -0.408169
0.24486 -0.333333 -0.411007
0.250205 -0.333333 -0.41213
0.260896 -0.333333 -0.414376
0.266242 -0.333333 -0.415219
0.276934 -0.333333 -0.416904
0.282281 -0.333333 -0.417364
0.292974 -0.333333 -0.418284
0.298321 -0.333333 -0.418549
0.309015 -0.333333 -0.419078
0.314361 -0.333333 -0.419083
0.325055 -0.333333 -0.419091
0.330401 -0.333333 -0.418804
0.341094 -0.333333 -0.41823
0.346439 -0.333333 -0.417748
0.357131 -0.333333 -0.416784
0.362476 -0.333333 -0.416038
0.373165 -0.333333 -0.414546
0.0824485 -0.333333 -0.296571
0.0840261 -0.333333 -0.298833
0.0857647 -0.333333 -0.301203
0.089242 -0.333333 -0.305944
0.0911575 -0.333333 -0.308422
0.0949885 -0.333333 -0.31338
0.0971013 -0.333333 -0.315937
0.101327 -0.333333 -0.321051
0.103655 -0.333333 -0.323685
0.108313 -0.333333 -0.328954
0.110879 -0.333333 -0.331656
0.116011 -0.333333 -0.33706
0.118834 -0.333333 -0.339876
0.124479 -0.333333 -0.34551
0.127592 -0.333333 -0.34832
0.133819 -0.333333 -0.353941
0.13725 -0.333333 -0.35673
0.144112 -0.333333 -0.362308
0.147887 -0.333333 -0.365139
0.155438 -0.333333 -0.370802
0.159597 -0.333333 -0.373566
0.167915 -0.333333 -0.379095
0.172496 -0.333333 -0.381718
0.181658 -0.333333 -0.386964
0.1867 -0.333333 -0.389493
0.196783 -0.333333 -0.394549
0.202124 -0.333333 -0.396725
0.212805 -0.333333 -0.401077
0.218145 -0.333333 -0.402968
0.228826 -0.333333 -0.40675
0.234171 -0.333333 -0.408169
0.24486 -0.333333 -0.411007
0.250205 -0.333333 -0.41213
0.260896 -0.333333 -0.414376
0.266242 -0.333333 -0.415219
0.276934 -0.333333 -0.416904
0.282281 -0.333333 -0.417364
0.292974 -0.333333 -0.418284
0.298321 -0.333333 -0.418549
0.309015 -0.333333 -0.419078
0.314361 -0.333333 -0.419083
0.325055 -0.333333 -0.419091
0.330401 -0.333333 -0.418804
0.341094 -0.333333 -0.41823
0.346439 -0.333333 -0.417748
0.357131 -0.333333 -0.416784
0.362476 -0.333333 -0.416038
0.373165 -0.333333 -0.414546
0.378509 -0.333333 -0.413626
0.389197 -0.333333 -0.411787
0.0875033 -0.333333 -0.303573
0.089242 -0.333333 -0.305944
0.0911575 -0.333333 -0.308422
0.0949885 -0.333333 -0.31338
0.0971013 -0.333333 -0.315937
0.101327 -0.333333 -0.321051
0.103655 -0.333333 -0.323685
0.108313 -0.333333 -0.328954
0.110879 -0.333333 -0.331656
0.116011 -0.333333 -0.33706
0.118834 -0.333333 -0.339876
0.124479 -0.333333 -0.34551
0.127592 -0.333333 -0.34832
0.133819 -0.333333 -0.353941
0.13725 -0.333333 -0.35673
0.144112 -0.333333 -0.362308
0.147887 -0.333333 -0.365139
0.155438 -0.333333 -0.370802
0.159597 -0.333333 -0.373566
0.167915 -0.333333 -0.379095
0.172496 -0.333333 -0.381718
0.181658 -0.333333 -0.386964
0.1867 -0.333333 -0.389493
0.196783 -0.333333 -0.394549
0.202124 -0.333333 -0.396725
0.212805 -0.333333 -0.401077
0.218145 -0.333333 -0.402968
0.228826 -0.333333 -0.40675
0.234171 -0.333333 -0.408169
0.24486 -0.333333 -0.411007
0.250205 -0.333333 -0.41213
0.260896 -0.333333 -0.414376
0.266242 -0.333333 -0.415219
0.276934 -0.333333 -0.416904
0.282281 -0.333333 -0.417364
0.292974 -0.333333 -0.418284
0.298321 -0.333333 -0.418549
0.309015 -0.333333 -0.419078
0.314361 -0.333333 -0.419083
0.325055 -0.333333 -0.419091
0.330401 -0.333333 -0.418804
0.341094 -0.333333 -0.41823
[...]
POINT_DATA 9421
 FIELD attributes 2
p 1 9421 float
-1364.26 -1475.02 -1602.49 -1857.44 -2002.12 -2291.48 -2441.16 -2740.53 -2898.79 -3215.3 -3390.65 -3741.34 -3934.29 -4320.19 -4538.52 -4975.17 -5212.41 -5686.9 -5933.27 -6426.03 -6679.08 -7185.17 -7492.56 -8107.33 -8455.7 -9152.43 -9450.44 -10046.4 -10355.7 -10974.2 -11332.1 -12047.9 -12340.5 -12925.7 -13175.7 -13675.8 -13841.5 -14173 -14314.8 -14598.6 -14672.9 -14821.6 -14738.4 -14572.2 -14520.4 -14417 -14262.3 -13952.8 -13710.5 -13225.9
-1729.96 -1857.44 -2002.12 -2291.48 -2441.16 -2740.53 -2898.79 -3215.3 -3390.65 -3741.34 -3934.29 -4320.19 -4538.52 -4975.17 -5212.41 -5686.9 -5933.27 -6426.03 -6679.08 -7185.17 -7492.56 -8107.33 -8455.7 -9152.43 -9450.44 -10046.4 -10355.7 -10974.2 -11332.1 -12047.9 -12340.5 -12925.7 -13175.7 -13675.8 -13841.5 -14173 -14314.8 -14598.6 -14672.9 -14821.6 -14738.4 -14572.2 -14520.4 -14417 -14262.3 -13952.8 -13710.5 -13225.9 -13039.7 -12667.2
-2146.8 -2291.48 -2441.16 -2740.53 -2898.79 -3215.3 -3390.65 -3741.34 -3934.29 -4320.19 -4538.52 -4975.17 -5212.41 -5686.9 -5933.27 -6426.03 -6679.08 -7185.17 -7492.56 -8107.33 -8455.7 -9152.43 -9450.44 -10046.4 -10355.7 -10974.2 -11332.1 -12047.9 -12340.5 -12925.7 -13175.7 -13675.8 -13841.5 -14173 -14314.8 -14598.6 -14672.9 -14821.6 -14738.4 -14572.2 -14520.4 -14417 -14262.3 -13952.8 -13710.5 -13225.9 -13039.7 -12667.2 -12407.6 -11888.5
-2590.84 -2740.53 -2898.79 -3215.3 -3390.65 -3741.34 -3934.29 -4320.19 -4538.52 -4975.17 -5212.41 -5686.9 -5933.27 -6426.03 -6679.08 -7185.17 -7492.56 -8107.33 -8455.7 -9152.43 -9450.44 -10046.4 -10355.7 -10974.2 -11332.1 -12047.9 -12340.5 -12925.7 -13175.7 -13675.8 -13841.5 -14173 -14314.8 -14598.6 -14672.9 -14821.6 -14738.4 -14572.2 -14520.4 -14417 -14262.3 -13952.8 -13710.5 -13225.9 -13039.7 -12667.2 -12407.6 -11888.5 -11580.5 -10964.5
-3057.04 -3215.3 -3390.65 -3741.34 -3934.29 -4320.19 -4538.52 -4975.17 -5212.41 -5686.9 -5933.27 -6426.03 -6679.08 -7185.17 -7492.56 -8107.33 -8455.7 -9152.43 -9450.44 -10046.4 -10355.7 -10974.2 -11332.1 -12047.9 -12340.5 -12925.7 -13175.7 -13675.8 -13841.5 -14173 -14314.8 -14598.6 -14672.9 -14821.6 -14738.4 -14572.2 -14520.4 -14417 -14262.3 -13952.8 -13710.5 -13225.9 -13039.7 -12667.2 -12407.6 -11888.5 -11580.5 -10964.5 -10633.9 -9972.73
-3566 -3741.34 -3934.29 -4320.19 -4538.52 -4975.17 -5212.41 -5686.9 -5933.27 -6426.03 -6679.08 -7185.17 -7492.56 -8107.33 -8455.7 -9152.43 -9450.44 -10046.4 -10355.7 -10974.2 -11332.1 -12047.9 -12340.5 -12925.7 -13175.7 -13675.8 -13841.5 -14173 -14314.8 -14598.6 -14672.9 -14821.6 -14738.4 -14572.2 -14520.4 -14417 -14262.3 -13952.8 -13710.5 -13225.9 -13039.7 -12667.2 -12407.6 -11888.5 -11580.5 -10964.5 -10633.9 -9972.73 -9612.54 -8892.16
-4127.24 -4320.19 -4538.52 -4975.17 -5212.41 -5686.9 -5933.27 -6426.03 -6679.08 -7185.17 -7492.56 -8107.33 -8455.7 -9152.43 -9450.44 -10046.4 -10355.7 -10974.2 -11332.1 -12047.9 -12340.5 -12925.7 -13175.7 -13675.8 -13841.5 -14173 -14314.8 -14598.6 -14672.9 -14821.6 -14738.4 -14572.2 -14520.4 -14417 -14262.3 -13952.8 -13710.5 -13225.9 -13039.7 -12667.2 -12407.6 -11888.5 -11580.5 -10964.5 -10633.9 -9972.73 -9612.54 -8892.16 -8595.01 -8000.7
-4756.84 -4975.17 -5212.41 -5686.9 -5933.27 -6426.03 -6679.08 -7185.17 -7492.56 -8107.33 -8455.7 -9152.43 -9450.44 -10046.4 -10355.7 -10974.2 -11332.1 -12047.9 -12340.5 -12925.7 -13175.7 -13675.8 -13841.5 -14173 -14314.8 -14598.6 -14672.9 -14821.6 -14738.4 -14572.2 -14520.4 -14417 -14262.3 -13952.8 -13710.5 -13225.9 -13039.7 -12667.2 -12407.6 -11888.5 -11580.5 -10964.5 -10633.9 -9972.73 -9612.54 -8892.16 -8595.01 -8000.7 -7700.72 -7100.75
-5449.65 -5686.9 -5933.27 -6426.03 -6679.08 -7185.17 -7492.56 -8107.33 -8455.7 -9152.43 -9450.44 -10046.4 -10355.7 -10974.2 -11332.1 -12047.9 -12340.5 -12925.7 -13175.7 -13675.8 -13841.5 -14173 -14314.8 -14598.6 -14672.9 -14821.6 -14738.4 -14572.2 -14520.4 -14417 -14262.3 -13952.8 -13710.5 -13225.9 -13039.7 -12667.2 -12407.6 -11888.5 -11580.5 -10964.5 -10633.9 -9972.73 -9612.54 -8892.16 -8595.01 -8000.7 -7700.72 -7100.75 -6750.56 -6050.18
-6179.65 -6426.03 -6679.08 -7185.17 -7492.56 -8107.33 -8455.7 -9152.43 -9450.44 -10046.4 -10355.7 -10974.2 -11332.1 -12047.9 -12340.5 -12925.7 -13175.7 -13675.8 -13841.5 -14173 -14314.8 -14598.6 -14672.9 -14821.6 -14738.4 -14572.2 -14520.4 -14417 -14262.3 -13952.8 -13710.5 -13225.9 -13039.7 -12667.2 -12407.6 -11888.5 -11580.5 -10964.5 -10633.9 -9972.73 -9612.54 -8892.16 -8595.01 -8000.7 -7700.72 -7100.75 -6750.56 -6050.18 -5680.79 -4942.01
-6932.12 -7185.17 -7492.56 -8107.33 -8455.7 -9152.43 -9450.44 -10046.4 -10355.7 -10974.2 -11332.1 -12047.9 -12340.5 -12925.7 -13175.7 -13675.8 -13841.5 -14173 -14314.8 -14598.6 -14672.9 -14821.6 -14738.4 -14572.2 -14520.4 -14417 -14262.3 -13952.8 -13710.5 -13225.9 -13039.7 -12667.2 -12407.6 -11888.5 -11580.5 -10964.5 -10633.9 -9972.73 -9612.54 -8892.16 -8595.01 -8000.7 -7700.72 -7100.75 -6750.56 -6050.18 -5680.79 -4942.01 -4577.6 -3848.8
-7799.94 -8107.33 -8455.7 -9152.43 -9450.44 -10046.4 -10355.7 -10974.2 -11332.1 -12047.9 -12340.5 -12925.7 -13175.7 -13675.8 -13841.5 -14173 -14314.8 -14598.6 -14672.9 -14821.6 -14738.4 -14572.2 -14520.4 -14417 -14262.3 -13952.8 -13710.5 -13225.9 -13039.7 -12667.2 -12407.6 -11888.5 -11580.5 -10964.5 -10633.9 -9972.73 -9612.54 -8892.16 -8595.01 -8000.7 -7700.72 -7100.75 -6750.56 -6050.18 -5680.79 -4942.01 -4577.6 -3848.8 -3493.65 -2783.36
-8804.07 -9152.43 -9450.44 -10046.4 -10355.7 -10974.2 -11332.1 -12047.9 -12340.5 -12925.7 -13175.7 -13675.8 -13841.5 -14173 -14314.8 -14598.6 -14672.9 -14821.6 -14738.4 -14572.2 -14520.4 -14417 -14262.3 -13952.8 -13710.5 -13225.9 -13039.7 -12667.2 -12407.6 -11888.5 -11580.5 -10964.5 -10633.9 -9972.73 -9612.54 -8892.16 -8595.01 -8000.7 -7700.72 -7100.75 -6750.56 -6050.18 -5680.79 -4942.01 -4577.6 -3848.8 -3493.65 -2783.36 -2427.05 -1714.44
-9748.44 -10046.4 -10355.7 -10974.2 -11332.1 -12047.9 -12340.5 -12925.7 -13175.7 -13675.8 -13841.5 -14173 -14314.8 -14598.6 -14672.9 -14821.6 -14738.4 -14572.2 -14520.4 -14417 -14262.3 -13952.8 -13710.5 -13225.9 -13039.7 -12667.2 -12407.6 -11888.5 -11580.5 -10964.5 -10633.9 -9972.73 -9612.54 -8892.16 -8595.01 -8000.7 -7700.72 -7100.75 -6750.56 -6050.18 -5680.79 -4942.01 -4577.6 -3848.8 -3493.65 -2783.36 -2427.05 -1714.44 -1444.21 -903.744
-10664.9 -10974.2 -11332.1 -12047.9 -12340.5 -12925.7 -13175.7 -13675.8 -13841.5 -14173 -14314.8 -14598.6 -14672.9 -14821.6 -14738.4 -14572.2 -14520.4 -14417 -14262.3 -13952.8 -13710.5 -13225.9 -13039.7 -12667.2 -12407.6 -11888.5 -11580.5 -10964.5 -10633.9 -9972.73 -9612.54 -8892.16 -8595.01 -8000.7 -7700.72 -7100.75 -6750.56 -6050.18 -5680.79 -4942.01 -4577.6 -3848.8 -3493.65 -2783.36 -2427.05 -1714.44 -1444.21 -903.744 -803.706 -603.631
-11690 -12047.9 -12340.5 -12925.7 -13175.7 -13675.8 -13841.5 -14173 -14314.8 -14598.6 -14672.9 -14821.6 -14738.4 -14572.2 -14520.4 -14417 -14262.3 -13952.8 -13710.5 -13225.9 -13039.7 -12667.2 -12407.6 -11888.5 -11580.5 -10964.5 -10633.9 -9972.73 -9612.54 -8892.16 -8595.01 -8000.7 -7700.72 -7100.75 -6750.56 -6050.18 -5680.79 -4942.01 -4577.6 -3848.8 -3493.65 -2783.36 -2427.05 -1714.44 -1444.21 -903.744 -803.706 -603.631 -611.309 -626.667 -611.309
-12633.1 -12925.7 -13175.7 -13675.8 -13841.5 -14173 -14314.8 -14598.6 -14672.9 -14821.6 -14738.4 -14572.2 -14520.4 -14417 -14262.3 -13952.8 -13710.5 -13225.9 -13039.7 -12667.2 -12407.6 -11888.5 -11580.5 -10964.5 -10633.9 -9972.73 -9612.54 -8892.16 -8595.01 -8000.7 -7700.72 -7100.75 -6750.56 -6050.18 -5680.79 -4942.01 -4577.6 -3848.8 -3493.65 -2783.36 -2427.05 -1714.44 -1444.21 -903.744 -803.706 -603.631 -611.309 -626.667 -611.309 -626.667 -611.309
-13425.7 -13675.8 -13841.5 -14173 -14314.8 -14598.6 -14672.9 -14821.6 -14738.4 -14572.2 -14520.4 -14417 -14262.3 -13952.8 -13710.5 -13225.9 -13039.7 -12667.2 -12407.6 -11888.5 -11580.5 -10964.5 -10633.9 -9972.73 -9612.54 -8892.16 -8595.01 -8000.7 -7700.72 -7100.75 -6750.56 -6050.18 -5680.79 -4942.01 -4577.6 -3848.8 -3493.65 -2783.36 -2427.05 -1714.44 -1444.21 -903.744 -803.706 -603.631 -611.309 -626.667 -611.309 -626.667 -611.309 -626.667 -611.309
-14007.2 -14173 -14314.8 -14598.6 -14672.9 -14821.6 -14738.4 -14572.2 -14520.4 -14417 -14262.3 -13952.8 -13710.5 -13225.9 -13039.7 -12667.2 -12407.6 -11888.5 -11580.5 -10964.5 -10633.9 -9972.73 -9612.54 -8892.16 -8595.01 -8000.7 -7700.72 -7100.75 -6750.56 -6050.18 -5680.79 -4942.01 -4577.6 -3848.8 -3493.65 -2783.36 -2427.05 -1714.44 -1444.21 -903.744 -803.706 -603.631 -611.309 -626.667 -611.309 -626.667 -611.309 -626.667 -611.309 -626.667 -611.309
-14456.7 -14598.6 -14672.9 -14821.6 -14738.4 -14572.2 -14520.4 -14417 -14262.3 -13952.8 -13710.5 -13225.9 -13039.7 -12667.2 -12407.6 -11888.5 -11580.5 -10964.5 -10633.9 -9972.73 -9612.54 -8892.16 -8595.01 -8000.7 -7700.72 -7100.75 -6750.56 -6050.18 -5680.79 -4942.01 -4577.6 -3848.8 -3493.65 -2783.36 -2427.05 -1714.44 -1444.21 -903.744 -803.706 -603.631 -611.309 -626.667 -611.309 -626.667 -611.309 -626.667 -611.309 -626.667 -611.309 -626.667 -611.309
-14747.2 -14821.6 -14738.4 -14572.2 -14520.4 -14417 -14262.3 -13952.8 -13710.5 -13225.9 -13039.7 -12667.2 -12407.6 -11888.5 -11580.5 -10964.5 -10633.9 -9972.73 -9612.54 -8892.16 -8595.01 -8000.7 -7700.72 -7100.75 -6750.56 -6050.18 -5680.79 -4942.01 -4577.6 -3848.8 -3493.65 -2783.36 -2427.05 -1714.44 -1444.21 -903.744 -803.706 -603.631 -611.309 -626.667 -611.309 -626.667 -611.309 -626.667 -611.309 -626.667 -611.309 -626.667 -611.309 -626.667 -611.309
-14655.3 -14572.2 -14520.4 -14417 -14262.3 -13952.8 -13710.5 -13225.9 -13039.7 -12667.2 -12407.6 -11888.5 -11580.5 -10964.5 -10633.9 -9972.73 -9612.54 -8892.16 -8595.01 -8000.7 -7700.72 -7100.75 -6750.56 -6050.18 -5680.79 -4942.01 -4577.6 -3848.8 -3493.65 -2783.36 -2427.05 -1714.44 -1444.21 -903.744 -803.706 -603.631 -611.309 -626.667 -611.309 -626.667 -611.309 -626.667 -611.309 -626.667 -611.309 -626.667 -611.309 -626.667 -611.309 -626.667 -611.309
-14468.7 -14417 -14262.3 -13952.8 -13710.5 -13225.9 -13039.7 -12667.2 -12407.6 -11888.5 -11580.5 -10964.5 -10633.9 -9972.73 -9612.54 -8892.16 -8595.01 -8000.7 -7700.72 -7100.75 -6750.56 -6050.18 -5680.79 -4942.01 -4577.6 -3848.8 -3493.65 -2783.36 -2427.05 -1714.44 -1444.21 -903.744 -803.706 -603.631 -611.309 -626.667 -611.309 -626.667 -611.309 -626.667 -611.309 -626.667 -611.309 -626.667 -611.309 -626.667 -611.309 -626.667 -611.309 -626.667 -611.309
-14107.5 -13952.8 -13710.5 -13225.9 -13039.7 -12667.2 -12407.6 -11888.5 -11580.5 -10964.5 -10633.9 -9972.73 -9612.54 -8892.16 -8595.01 -8000.7 -7700.72 -7100.75 -6750.56 -6050.18 -5680.79 -4942.01 -4577.6 -3848.8 -3493.65 -2783.36 -2427.05 -1714.44 -1444.21 -903.744 -803.706 -603.631 -611.309 -626.667 -611.309 -626.667 -611.309 -626.667 -611.309 -626.667 -611.309 -626.667 -611.309 -626.667 -611.309 -626.667 -611.309 -626.667 -611.309 -626.667 -611.309
-13468.2 -13225.9 -13039.7 -12667.2 -12407.6 -11888.5 -11580.5 -10964.5 -10633.9 -9972.73 -9612.54 -8892.16 -8595.01 -8000.7 -7700.72 -7100.75 -6750.56 -6050.18 -5680.79 -4942.01 -4577.6 -3848.8 -3493.65 -2783.36 -2427.05 -1714.44 -1444.21 -903.744 -803.706 -603.631 -611.309 -626.667 -611.309 -626.667 -611.309 -626.667 -611.309 -626.667 -611.309 -626.667 -611.309 -626.667 -611.309 -626.667 -611.309 -626.667 -611.309 -626.667 -611.309 -626.667 -611.309
-12853.4 -12667.2 -12407.6 -11888.5 -11580.5 -10964.5 -10633.9 -9972.73 -9612.54 -8892.16 -8595.01 -8000.7 -7700.72 -7100.75 -6750.56 -6050.18 -5680.79 -4942.01 -4577.6 -3848.8 -3493.65 -2783.36 -2427.05 -1714.44 -1444.21 -903.744 -803.706 -603.631 -611.309 -626.667 -611.309 -626.667 -611.309 -626.667 -611.309 -626.667 -611.309 -626.667 -611.309 -626.667 -611.309 -626.667 -611.309 -626.667 -611.309 -626.667 -611.309 -626.667 -611.309 -626.667 -611.309
-12407.6 -12148.1 -11888.5 -11272.5 -10964.5 -10303.3 -9972.73 -9252.35 -8892.16 -8297.85 -8000.7 -7400.73 -7100.75 -6400.37 -6050.18 -5311.4 -4942.01 -4213.2 -3848.8 -3138.51 -2783.36 -2070.75 -1714.44 -1173.98 -903.744 -703.668 -603.631 -618.988 -603.631 -618.988 -603.631 -618.988 -603.631 -618.988 -603.631 -618.988 -603.631 -618.988 -603.631 -618.988 -603.631 -618.988 -603.631 -618.988 -603.631 -618.988 -603.631 -618.988 -603.631 -618.988 -603.631
-11580.5 -11272.5 -10964.5 -10303.3 -9972.73 -9252.35 -8892.16 -8297.85 -8000.7 -7400.73 -7100.75 -6400.37 -6050.18 -5311.4 -4942.01 -4213.2 -3848.8 -3138.51 -2783.36 -2070.75 -1714.44 -1173.98 -903.744 -703.668 -603.631 -618.988 -603.631 -618.988 -603.631 -618.988 -603.631 -618.988 -603.631 -618.988 -603.631 -618.988 -603.631 -618.988 -603.631 -618.988 -603.631 -618.988 -603.631 -618.988 -603.631 -618.988 -603.631 -618.988 -603.631 -618.988 -603.631
-10633.9 -10303.3 -9972.73 -9252.35 -8892.16 -8297.85 -8000.7 -7400.73 -7100.75 -6400.37 -6050.18 -5311.4 -4942.01 -4213.2 -3848.8 -3138.51 -2783.36 -2070.75 -1714.44 -1173.98 -903.744 -703.668 -603.631 -618.988 -603.631 -618.988 -603.631 -618.988 -603.631 -618.988 -603.631 -618.988 -603.631 -618.988 -603.631 -618.988 -603.631 -618.988 -603.631 -618.988 -603.631 -618.988 -603.631 -618.988 -603.631 -618.988 -603.631 -618.988 -603.631 -618.988 -603.631
-9612.54 -9252.35 -8892.16 -8297.85 -8000.7 -7400.73 -7100.75 -6400.37 -6050.18 -5311.4 -4942.01 -4213.2 -3848.8 -3138.51 -2783.36 -2070.75 -1714.44 -1173.98 -903.744 -703.668 -603.631 -618.988 -603.631 -618.988 -603.631 -618.988 -603.631 -618.988 -603.631 -618.988 -603.631 -618.988 -603.631 -618.988 -603.631 -618.988 -603.631 -618.988 -603.631 -618.988 -603.631 -618.988 -603.631 -618.988 -603.631 -618.988 -603.631 -618.988 -603.631 -618.988 -603.631
-8595.01 -8297.85 -8000.7 -7400.73 -7100.75 -6400.37 -6050.18 -5311.4 -4942.01 -4213.2 -3848.8 -3138.51 -2783.36 -2070.75 -1714.44 -1173.98 -903.744 -703.668 -603.631 -618.988 -603.631 -618.988 -603.631 -618.988 -603.631 -618.988 -603.631 -618.988 -603.631 -618.988 -603.631 -618.988 -603.631 -618.988 -603.631 -618.988 -603.631 -618.988 -603.631 -618.988 -603.631 -618.988 -603.631 -618.988 -603.631 -618.988 -603.631 -618.988 -603.631 -618.988 -603.631
-7700.72 -7400.73 -7100.75 -6400.37 -6050.18 -5311.4 -4942.01 -4213.2 -3848.8 -3138.51 -2783.36 -2070.75 -1714.44 -1173.98 -903.744 -703.668 -603.631 -618.988 -603.631 -618.988 -603.631 -618.988 -603.631 -618.988 -603.631 -618.988 -603.631 -618.988 -603.631 -618.988 -603.631 -618.988 -603.631 -618.988 -603.631 -618.988 -603.631 -618.988 -603.631 -618.988 -603.631 -618.988 -603.631 -618.988 -603.631 -618.988 -603.631 -618.988 -603.631 -618.988 -603.631
-6750.56 -6400.37 -6050.18 -5311.4 -4942.01 -4213.2 -3848.8 -3138.51 -2783.36 -2070.75 -1714.44 -1173.98 -903.744 -703.668 -603.631 -618.988 -603.631 -618.988 -603.631 -618.988 -603.631 -618.988 -603.631 -618.988 -603.631 -618.988 -603.631 -618.988 -603.631 -618.988 -603.631 -618.988 -603.631 -618.988 -603.631 -618.988 -603.631 -618.988 -603.631 -618.988 -603.631 -618.988 -603.631 -618.988 -603.631 -618.988 -603.631 -618.988 -603.631 -618.988 -603.631
-5680.79 -5311.4 -4942.01 -4213.2 -3848.8 -3138.51 -2783.36 -2070.75 -1714.44 -1173.98 -903.744 -703.668 -603.631 -618.988 -603.631 -618.988 -603.631 -618.988 -603.631 -618.988 -603.631 -618.988 -603.631 -618.988 -603.631 -618.988 -603.631 -618.988 -603.631 -618.988 -603.631 -618.988 -603.631 -618.988 -603.631 -618.988 -603.631 -618.988 -603.631 -618.988 -603.631 -618.988 -603.631 -618.988 -603.631 -618.988 -603.631 -618.988 -603.631 -618.988 -603.631
-4577.6 -4213.2 -3848.8 -3138.51 -2783.36 -2070.75 -1714.44 -1173.98 -903.744 -703.668 -603.631 -618.988 -603.631 -618.988 -603.631 -618.988 -603.631 -618.988 -603.631 -618.988 -603.631 -618.988 -603.631 -618.988 -603.631 -618.988 -603.631 -618.988 -603.631 -618.988 -603.631 -618.988 -603.631 -618.988 -603.631 -618.988 -603.631 -618.988 -603.631 -618.988 -603.631 -618.988 -603.631 -618.988 -603.631 -618.988 -603.631 -618.988 -603.631 -618.988 -603.631
-3493.65 -3138.51 -2783.36 -2070.75 -1714.44 -1173.98 -903.744 -703.668 -603.631 -618.988 -603.631 -618.988 -603.631 -618.988 -603.631 -618.988 -603.631 -618.988 -603.631 -618.988 -603.631 -618.988 -603.631 -618.988 -603.631 -618.988 -603.631 -618.988 -603.631 -618.988 -603.631 -618.988 -603.631 -618.988 -603.631 -618.988 -603.631 -618.988 -603.631 -618.988 -603.631 -618.988 -603.631 -618.988 -603.631 -618.988 -603.631 -618.988 -603.631 -618.988 -603.631
-2427.05 -2070.75 -1714.44 -1173.98 -903.744 -703.668 -603.631 -618.988 -603.631 -618.988 -603.631 -618.988 -603.631 -618.988 -603.631 -618.988 -603.631 -618.988 -603.631 -618.988 -603.631 -618.988 -603.631 -618.988 -603.631 -618.988 -603.631 -618.988 -603.631 -618.988 -603.631 -618.988 -603.631 -618.988 -603.631 -618.988 -603.631 -618.988 -603.631 -618.988 -603.631 -618.988 -603.631 -618.988 -603.631 -618.988 -603.631 -618.988 -603.631 -618.988 -603.631
-1444.21 -1173.98 -903.744 -703.668 -603.631 -618.988 -603.631 -618.988 -603.631 -618.988 -603.631 -618.988 -603.631 -618.988 -603.631 -618.988 -603.631 -618.988 -603.631 -618.988 -603.631 -618.988 -603.631 -618.988 -603.631 -618.988 -603.631 -618.988 -603.631 -618.988 -603.631 -618.988 -603.631 -618.988 -603.631 -618.988 -603.631 -618.988 -603.631 -618.988 -603.631 -618.988 -603.631 -618.988 -603.631 -618.988 -603.631 -618.988 -603.631 -618.988 -603.631
-803.706 -703.668 -603.631 -618.988 -603.631 -618.988 -603.631 -618.988 -603.631 -618.988 -603.631 -618.988 -603.631 -618.988 -603.631 -618.988 -603.631 -618.988 -603.631 -618.988 -603.631 -618.988 -603.631 -618.988 -603.631 -618.988 -603.631 -618.988 -603.631 -618.988 -603.631 -618.988 -603.631 -618.988 -603.631 -618.988 -603.631 -618.988 -603.631 -618.988 -603.631 -618.988 -603.631 -618.988 -603.631 -618.988 -603.631 -618.988 -603.631 -618.988 -603.631
-611.309 -618.988 -603.631 -618.988 -603.631 -618.988 -603.631 -618.988 -603.631 -618.988 -603.631 -618.988 -603.631 -618.988 -603.631 -618.988 -603.631 -618.988 -603.631 -618.988 -603.631 -618.988 -603.631 -618.988 -603.631 -618.988 -603.631 -618.988 -603.631 -618.988 -603.631 -618.988 -603.631 -618.988 -603.631 -618.988 -603.631 -618.988 -603.631 -618.988 -603.631 -618.988 -603.631 -618.988 -603.631 -618.988 -603.631 -618.988 -603.631 -618.988 -603.631
-636.812 -626.667 -618.988 -603.631 -618.988 -603.631 -618.988 -603.631 -618.988 -603.631 -618.988 -603.631 -618.988 -603.631 -618.988 -603.631 -618.988 -603.631 -618.988 -603.631 -618.988 -603.631 -618.988 -603.631 -618.988 -603.631 -618.988 -603.631 -618.988 -603.631 -618.988 -603.631 -618.988 -603.631 -618.988 -603.631 -618.988 -603.631 -618.988 -603.631 -618.988 -603.631 -618.988 -603.631 -618.988 -603.631 -618.988 -603.631 -618.988 -603.631 -618.988
-650.455 -657.103 -646.958 -626.667 -618.988 -603.631 -618.988 -603.631 -618.988 -603.631 -618.988 -603.631 -618.988 -603.631 -618.988 -603.631 -618.988 -603.631 -618.988 -603.631 -618.988 -603.631 -618.988 -603.631 -618.988 -603.631 -618.988 -603.631 -618.988 -603.631 -618.988 -603.631 -618.988 -603.631 -618.988 -603.631 -618.988 -603.631 -618.988 -603.631 -618.988 -603.631 -618.988 -603.631 -618.988 -603.631 -618.988 -603.631 -618.988 -603.631 -618.988
-626.492 -637.158 -643.807 -657.103 -646.958 -626.667 -618.988 -603.631 -618.988 -603.631 -618.988 -603.631 -618.988 -603.631 -618.988 -603.631 -618.988 -603.631 -618.988 -603.631 -618.988 -603.631 -618.988 -603.631 -618.988 -603.631 -618.988 -603.631 -618.988 -603.631 -618.988 -603.631 -618.988 -603.631 -618.988 -603.631 -618.988 -603.631 -618.988 -603.631 -618.988 -603.631 -618.988 -603.631 -618.988 -603.631 -618.988 -603.631 -618.988 -603.631 -618.988
-596.136 -605.16 -615.826 -637.158 -643.807 -657.103 -646.958 -626.667 -618.988 -603.631 -618.988 -603.631 -618.988 -603.631 -618.988 -603.631 -618.988 -603.631 -618.988 -603.631 -618.988 -603.631 -618.988 -603.631 -618.988 -603.631 -618.988 -603.631 -618.988 -603.631 -618.988 -603.631 -618.988 -603.631 -618.988 -603.631 -618.988 -603.631 -618.988 -603.631 -618.988 -603.631 -618.988 -603.631 -618.988 -603.631 -618.988 -603.631 -618.988 -603.631 -618.988