/*--------------------------------*- C++ -*----------------------------------*\
| =========                 |                                                 |
| \\      /  F ield         | OpenFOAM: The Open Source CFD Toolbox           |
|  \\    /   O peration     | Version:  2.3.0                                 |
|   \\  /    A nd           | Web:      www.OpenFOAM.org                      |
|    \\/     M anipulation  |                                                 |
\*---------------------------------------------------------------------------*/
FoamFile
{
    version     2.0;
    format      ascii;
    class       volScalarField;
    location    "100";
    object      p;
}
// * * * * * * * * * * * * * * * * * * * * * * * * * * * * * * * * * * * * * //

dimensions      [0 2 -2 0 0 0 0];

internalField   nonuniform List<scalar> 
28552
(
617.888
640.144
662.686
684.458
707.56
731.973
757.18
783.05
809.449
836.039
862.327
887.609
910.951
931.024
945.066
951.282
949.119
938.482
919.677
893.032
859.79
819.84
776.852
726.658
681.039
623.892
580.793
519.641
489.766
421.635
423.396
335.922
391.292
311.047
576.752
598.904
619.55
638.762
659.217
680.633
702.496
724.749
747.236
769.603
791.368
811.839
830.054
844.704
853.551
855.289
849.547
836.351
816.093
789.057
756.533
718.098
677.685
630.463
587.991
535.306
495.974
439.335
412.384
346.69
348.038
261.626
294.189
231.832
533.541
554.398
572.604
589.171
607.035
625.583
644.306
663.192
682.051
700.509
718.092
734.143
747.769
757.702
762.002
759.808
750.948
735.528
713.985
686.533
654.542
617.246
578.788
533.873
493.522
443.441
405.577
350.322
322.163
254.552
245.33
152.989
150.289
73.3812
487.269
506.394
521.979
535.994
551.337
567.072
582.759
598.423
613.834
628.607
642.28
654.217
663.592
669.236
669.503
663.84
652.176
634.661
611.8
583.744
551.943
515.33
478.121
434.858
395.871
347.531
310.39
255.849
226.546
158.06
144.287
59.7666
45.3483
-40.5901
439.272
457.08
470.288
481.863
494.717
507.712
520.482
533.067
545.202
556.508
566.538
574.673
580.119
581.777
578.299
569.438
555.217
535.816
511.79
483.207
451.602
415.625
379.636
338.045
301.065
255.26
221.169
170.353
145.668
84.6821
75.5894
7.29713
6.53738
-52.7722
390.798
407.163
418.062
427.391
437.84
448.193
458.181
467.832
476.853
484.879
491.484
496.072
497.889
495.901
489.052
477.379
460.984
440.052
415.18
386.351
355.181
320.149
285.63
246.128
211.38
168.642
137.359
90.2967
68.4651
12.9713
4.27267
-56.7573
-60.7244
-115.74
342.249
357.081
365.706
372.859
380.968
388.773
396.089
402.927
408.975
413.886
417.252
418.507
416.942
411.587
401.645
387.409
369.051
346.759
321.17
292.166
261.425
227.232
193.996
156.13
123.26
82.6333
53.7912
9.36098
-10.2587
-61.1908
-69.1801
-122.489
-125.245
-171.061
294.317
307.395
313.848
318.803
324.603
329.94
334.691
338.836
342.055
344.017
344.33
342.462
337.756
329.301
316.544
299.995
279.884
256.388
230.184
201.07
170.77
137.444
105.435
69.2423
38.0459
-0.379762
-27.5726
-69.4061
-87.9855
-134.909
-143.287
-191.66
-194.964
-232.318
247.376
258.816
262.952
265.821
269.429
272.406
274.71
276.294
276.836
276.02
273.47
268.683
261.053
249.73
234.389
215.744
194.081
169.563
142.898
113.79
83.9891
51.5137
20.6393
-14.1789
-43.9712
-80.9032
-106.787
-147.232
-166.123
-211.843
-223.516
-271.273
-284.56
-327.687
201.704
211.299
213.139
214.208
215.762
216.483
216.452
215.588
213.572
210.112
204.846
197.304
186.924
172.916
155.173
134.592
111.501
86.0511
58.9917
29.96
0.760701
-30.6402
-60.0499
-92.8827
-120.589
-154.834
-178.561
-215.442
-232.678
-273.276
-284.532
-324.802
-334.491
-373.727
157.519
165.353
164.967
164.356
163.903
162.465
160.22
157.032
152.597
146.642
138.822
128.693
115.739
99.2193
79.2275
56.834
32.4142
6.10387
-21.3022
-50.2308
-78.8323
-109.186
-137.131
-168.011
-193.318
-224.513
-244.74
-277.251
-290.249
-324.329
-330.939
-363.832
-364.979
-394.793
114.935
121.291
118.847
116.542
114.108
110.59
106.214
100.792
94.0386
85.7024
75.454
62.8829
47.5124
28.6493
6.57034
-17.5161
-43.2166
-70.4266
-98.3232
-127.398
-155.734
-185.444
-212.315
-241.663
-265.093
-293.854
-311.494
-339.785
-349.039
-376.187
-377.189
-401.247
-395.992
-409.799
74.9422
79.6045
75.1485
71.2385
66.9154
61.437
55.0542
47.5341
38.6182
28.0693
15.5751
0.753943
-16.8314
-37.8316
-61.8001
-87.4047
-114.236
-142.245
-170.63
-199.996
-228.553
-258.504
-286.013
-316.224
-341.41
-372.066
-393.524
-425.822
-443.394
-478.202
-493.206
-529.953
-547.951
-579.571
37.1999
40.1576
33.7727
28.3141
22.1467
14.7803
6.46543
-3.06903
-14.053
-26.7097
-41.3328
-58.2701
-77.9192
-100.887
-126.571
-153.545
-181.408
-210.169
-239.055
-268.748
-297.481
-327.428
-354.808
-384.662
-409.497
-439.456
-460.579
-491.391
-507.814
-539.167
-551.03
-579.719
-590.781
-620.589
1.84309
3.0706
-5.14147
-12.1074
-20.0544
-29.2224
-39.3847
-50.8391
-63.7869
-78.4424
-95.0815
-114.026
-135.636
-160.476
-187.781
-215.99
-244.637
-273.709
-302.327
-331.152
-358.341
-386.079
-410.612
-436.855
-457.591
-482.366
-497.792
-521.178
-530.401
-552.293
-556.401
-574.787
-575.125
-590.129
-31.0362
-31.5208
-41.3769
-49.7935
-59.4272
-70.2861
-82.1825
-95.425
-110.187
-126.669
-145.126
-165.844
-189.144
-215.546
-244.149
-273.336
-302.668
-332.206
-361.162
-390.292
-417.848
-445.908
-470.897
-497.488
-519.036
-544.516
-562.113
-587.521
-601.269
-626.855
-638.059
-663.13
-674.344
-694.583
-61.316
-63.5018
-74.9447
-84.7053
-95.933
-108.369
-121.887
-136.792
-153.228
-171.389
-191.508
-213.854
-238.716
-266.604
-296.521
-326.805
-357.036
-387.327
-416.869
-446.46
-474.442
-502.979
-528.771
-556.341
-579.289
-606.072
-625.424
-651.729
-667.099
-692.45
-704.497
-726.963
-737.917
-760.068
-89.3477
-93.209
-106.088
-117.178
-129.932
-143.87
-158.932
-175.41
-193.42
-213.141
-234.779
-258.557
-284.716
-313.694
-344.347
-374.949
-405.058
-434.83
-463.493
-491.85
-518.32
-545.046
-568.728
-593.513
-613.458
-636.43
-652.061
-673.625
-684.858
-704.934
-712.879
-729.918
-736.92
-751.118
-114.853
-120.297
-134.447
-146.73
-160.841
-176.096
-192.508
-210.345
-229.695
-250.725
-273.611
-298.552
-325.749
-355.612
-386.903
-417.88
-448.119
-477.803
-506.156
-534.046
-559.838
-585.629
-608.367
-632.441
-652.004
-674.88
-691.009
-712.963
-725.814
-746.675
-757.226
-775.515
-785.159
-803.689
-137.901
-144.792
-160.074
-173.387
-188.677
-205.049
-222.604
-241.577
-262.037
-284.136
-308.028
-333.877
-361.848
-392.296
-423.884
-454.839
-484.69
-513.682
-540.984
-567.545
-591.72
-615.796
-636.377
-657.781
-673.982
-692.99
-704.518
-721.363
-728.529
-742.951
-747.11
-757.261
-758.846
-765.905
-158.626
-166.782
-182.929
-197.052
-213.26
-230.465
-248.861
-268.642
-289.859
-312.655
-337.156
-363.513
-391.859
-422.548
-454.208
-485.131
-514.903
-543.845
-571.184
-597.971
-622.522
-647.184
-668.824
-692.085
-711.06
-733.613
-750.106
-772.334
-786.92
-808.8
-822.583
-843.459
-858.553
-877.507
-177.121
-186.388
-203.236
-218.012
-234.974
-252.826
-271.879
-292.274
-314.053
-337.352
-362.283
-388.978
-417.561
-448.365
-479.998
-510.77
-540.226
-568.757
-595.452
-621.445
-644.935
-668.388
-688.284
-709.394
-725.421
-744.402
-756.498
-773.431
-781.919
-796.393
-802.664
-813.73
-818.807
-828.194
-193.514
-203.728
-221.105
-236.374
-253.903
-272.219
-291.729
-312.524
-334.641
-358.202
-383.294
-410.032
-438.493
-468.986
-500.057
-530.07
-558.561
-585.968
-611.44
-636.188
-658.271
-680.269
-698.591
-718.189
-732.672
-750.321
-761.179
-777.186
-785.056
-799.178
-805.697
-816.815
-822.942
-830.396
-207.795
-218.822
-236.538
-252.158
-270.095
-288.694
-308.487
-329.494
-351.758
-375.387
-400.455
-427.059
-455.27
-485.384
-515.972
-545.478
-573.459
-600.454
-625.519
-650.063
-672.197
-694.785
-714.123
-735.295
-751.909
-772.051
-786.148
-805.473
-817.483
-835.3
-846.457
-861.029
-872.632
-886.262
-220.056
-231.78
-249.657
-265.565
-283.762
-302.537
-322.493
-343.597
-365.897
-389.494
-414.447
-440.854
-468.762
-498.474
-528.527
-557.421
-584.643
-610.759
-634.722
-657.93
-678.323
-698.792
-715.436
-733.369
-746.153
-761.872
-770.88
-784.272
-790.01
-800.555
-804.686
-811.082
-813.522
-817.616
-230.292
-242.609
-260.598
-276.651
-294.995
-313.816
-333.808
-354.875
-377.079
-400.506
-425.202
-451.249
-478.678
-507.759
-537.04
-565.077
-591.364
-616.57
-639.639
-662.135
-681.826
-701.744
-717.908
-735.672
-748.453
-764.54
-774.413
-789.264
-797.464
-810.755
-819.105
-830.364
-838.705
-845.546
-238.917
-251.673
-269.63
-285.735
-304.115
-322.865
-342.775
-363.679
-385.657
-408.78
-433.084
-458.653
-485.504
-513.942
-542.535
-569.987
-595.784
-620.679
-643.589
-666.158
-686.258
-707.027
-724.52
-743.946
-758.798
-777.099
-789.447
-806.409
-816.975
-831.669
-841.475
-852.768
-863.198
-872.545
-245.841
-258.95
-276.791
-292.88
-311.207
-329.818
-349.575
-370.25
-391.945
-414.717
-438.596
-463.662
-489.926
-517.675
-545.495
-572.123
-597.006
-620.952
-642.725
-664.132
-682.719
-701.919
-717.343
-734.735
-747.175
-762.872
-772.481
-786.255
-793.674
-804.662
-811.444
-818.809
-824.28
-828.403
-251.117
-264.502
-282.154
-298.145
-316.342
-334.725
-354.245
-374.599
-395.916
-418.231
-441.558
-465.971
-491.439
-518.247
-544.941
-570.393
-593.986
-616.631
-637.089
-657.209
-674.561
-692.588
-706.993
-723.411
-735.179
-750.453
-760.165
-774.355
-783.312
-795.728
-805.128
-815.675
-825.698
-833.539
-254.898
-268.468
-285.848
-301.696
-319.688
-337.783
-357.003
-376.975
-397.858
-419.664
-442.403
-466.141
-490.836
-516.761
-542.493
-566.964
-589.532
-611.167
-630.476
-649.463
-665.473
-682.065
-694.761
-709.207
-718.675
-731.096
-737.723
-747.831
-752.523
-759.713
-763.613
-766.888
-769.485
-772.493
-257.187
-270.867
-287.918
-303.567
-321.285
-339.037
-357.9
-377.439
-397.846
-419.108
-441.236
-464.295
-488.22
-513.299
-538.079
-561.619
-583.163
-603.78
-622.007
-639.906
-654.687
-670.038
-681.355
-694.444
-702.534
-713.599
-719.081
-728.016
-731.905
-738.199
-742.227
-745.435
-747.894
-749.789
-258.06
-271.795
-288.454
-303.856
-321.234
-338.592
-357.044
-376.103
-395.99
-416.675
-438.171
-460.546
-483.732
-508.026
-532.027
-554.865
-575.82
-596.019
-613.959
-631.925
-647.087
-663.305
-675.995
-691.03
-701.759
-716.006
-725.497
-738.69
-747.804
-759.133
-768.821
-778.79
-788.563
-794.706
-257.683
-271.422
-287.664
-302.778
-319.792
-336.722
-354.74
-373.293
-392.643
-412.736
-433.594
-455.289
-477.746
-501.303
-524.562
-546.814
-567.238
-587.12
-604.813
-622.684
-637.829
-654.155
-666.901
-681.894
-692.394
-705.981
-714.704
-726.525
-734.351
-743.756
-751.434
-757.945
-764.478
-768.838
-256.154
-269.832
-285.614
-300.414
-317.026
-333.504
-351.061
-369.083
-387.874
-407.351
-427.547
-448.534
-470.226
-492.967
-515.375
-536.795
-556.38
-575.407
-592.185
-609.092
-623.14
-638.225
-649.614
-663.055
-672.019
-683.774
-690.899
-700.773
-707.096
-714.512
-721.043
-726.564
-731.875
-735.783
-253.412
-266.984
-282.275
-296.736
-312.911
-328.916
-345.986
-363.452
-381.657
-400.488
-419.982
-440.203
-461.034
-482.822
-504.142
-524.461
-542.804
-560.567
-575.905
-591.335
-603.719
-617.142
-626.773
-638.414
-645.619
-655.447
-660.75
-668.425
-672.781
-677.88
-681.924
-684.205
-687.031
-689.198
-249.519
-262.935
-277.695
-291.784
-307.484
-322.986
-339.536
-356.411
-373.996
-392.145
-410.901
-430.322
-450.272
-471.103
-491.405
-510.741
-528.132
-545.039
-559.591
-574.44
-586.383
-599.609
-609.25
-621.157
-628.986
-639.723
-646.54
-655.918
-662.669
-670.341
-677.793
-683.559
-689.505
-693.495
-244.607
-257.809
-272.007
-285.695
-300.893
-315.869
-331.878
-348.145
-365.101
-382.566
-400.597
-419.253
-438.388
-458.387
-477.853
-496.486
-513.239
-529.708
-543.913
-558.55
-570.37
-583.557
-593.253
-605.208
-613.127
-623.679
-630.342
-639.046
-645.096
-651.425
-657.546
-661.593
-666.107
-669.361
-238.714
-251.652
-265.266
-278.53
-293.2
-307.633
-323.08
-338.729
-355.051
-371.837
-389.16
-407.079
-425.447
-444.671
-463.373
-481.325
-497.444
-513.305
-526.909
-540.952
-552.089
-564.538
-573.402
-584.374
-591.355
-600.764
-606.493
-614.063
-619.363
-624.707
-630.203
-633.562
-637.558
-640.577
-231.868
-244.496
-257.51
-270.335
-284.446
-298.319
-313.182
-328.199
-343.877
-359.977
-376.587
-393.762
-411.34
-429.743
-447.572
-464.687
-479.914
-494.937
-507.624
-520.839
-531.173
-542.834
-551.034
-561.335
-567.844
-576.721
-582.217
-589.422
-594.707
-599.926
-605.489
-608.708
-612.747
-615.783
-224.084
-236.37
-248.773
-261.146
-274.675
-287.976
-302.234
-316.605
-331.626
-347.027
-362.908
-379.313
-396.072
-413.613
-430.553
-446.836
-461.283
-475.6
-487.686
-500.325
-510.191
-521.439
-529.353
-539.339
-545.72
-554.274
-559.672
-566.47
-571.554
-576.144
-581.595
-584.91
-588.779
-591.764
-215.474
-227.388
-239.177
-251.099
-264.026
-276.75
-290.385
-304.104
-318.459
-333.157
-348.311
-363.959
-379.924
-396.65
-412.763
-428.285
-441.969
-455.571
-466.889
-478.794
-487.848
-498.285
-505.381
-514.416
-519.933
-527.438
-531.921
-537.615
-541.87
-545.471
-549.626
-551.433
-553.946
-555.732
-206.076
-217.597
-228.777
-240.24
-252.551
-264.694
-277.699
-290.763
-304.45
-318.448
-332.881
-347.778
-362.956
-378.864
-394.132
-408.855
-421.764
-434.645
-445.331
-456.671
-465.3
-475.343
-482.296
-491.269
-497.115
-505.022
-510.433
-517.009
-522.675
-527.861
-533.874
-537.979
-542.73
-546.182
-195.853
-206.963
-217.545
-228.544
-240.24
-251.811
-264.188
-276.608
-289.633
-302.938
-316.66
-330.82
-345.233
-360.355
-374.841
-388.847
-401.096
-413.369
-423.471
-434.238
-442.321
-451.692
-457.923
-465.858
-470.551
-476.815
-480.429
-484.706
-487.708
-489.82
-492.687
-493.162
-493.872
-494.604
-184.89
-195.554
-205.528
-216.046
-227.115
-238.114
-249.86
-261.641
-274.005
-286.618
-299.631
-313.062
-326.721
-341.073
-354.783
-368.077
-379.626
-391.262
-400.764
-410.966
-418.544
-427.436
-433.322
-440.967
-445.654
-452.01
-456.146
-461.107
-465.396
-468.699
-473.077
-475.731
-478.475
-480.21
-173.254
-183.425
-192.775
-202.789
-213.214
-223.636
-234.741
-245.881
-257.576
-269.493
-281.793
-294.489
-307.398
-320.99
-333.972
-346.622
-357.641
-368.848
-378.084
-388.17
-395.907
-405.16
-411.813
-420.375
-426.453
-434.229
-440.136
-446.705
-452.772
-458.128
-463.894
-467.83
-472.068
-475.237
-160.914
-170.561
-179.273
-188.749
-198.511
-208.346
-218.801
-229.3
-240.324
-251.549
-263.141
-275.114
-287.293
-300.156
-312.449
-324.501
-335.003
-345.772
-354.654
-364.404
-371.818
-380.576
-386.627
-394.212
-399.109
-405.239
-409.356
-413.693
-417.289
-419.487
-422.437
-423.662
-424.551
-425.322
-147.863
-156.938
-164.983
-173.88
-182.956
-192.179
-201.962
-211.801
-222.138
-232.658
-243.53
-254.768
-266.199
-278.305
-289.863
-301.24
-311.103
-321.244
-329.52
-338.637
-345.508
-353.707
-359.396
-366.665
-371.6
-377.926
-382.735
-388.107
-393.463
-397.754
-403.186
-407.286
-410.882
-413.514
-134.185
-142.653
-150.016
-158.305
-166.675
-175.261
-184.346
-193.507
-203.137
-212.939
-223.079
-233.568
-244.237
-255.551
-266.328
-276.951
-286.115
-295.549
-303.206
-311.709
-318.157
-325.985
-331.606
-338.825
-344.039
-350.572
-355.828
-361.345
-367.039
-371.695
-376.458
-379.973
-383.524
-386.675
-119.848
-127.693
-134.365
-142.028
-149.68
-157.613
-165.983
-174.45
-183.357
-192.434
-201.838
-211.577
-221.477
-231.993
-241.977
-251.836
-260.267
-268.927
-275.794
-283.33
-288.718
-295.129
-299.17
-304.264
-307.085
-310.596
-312.528
-314.221
-315.405
-315.465
-316.41
-316.27
-315.847
-316.137
-104.895
-112.084
-118.066
-125.09
-132.02
-139.284
-146.921
-154.675
-162.847
-171.191
-179.859
-188.858
-198.012
-207.759
-216.981
-226.093
-233.781
-241.622
-247.603
-254.084
-258.341
-263.425
-266.145
-269.778
-271.29
-273.442
-274.321
-275.17
-276.114
-275.968
-276.598
-276.648
-276.572
-276.659
-89.4138
-95.9272
-101.224
-107.605
-113.81
-120.396
-127.288
-134.321
-141.746
-149.356
-157.295
-165.572
-174.011
-183.041
-191.59
-200.096
-207.282
-214.693
-220.39
-226.668
-230.964
-236.196
-239.4
-243.616
-246.036
-249.125
-251.097
-252.808
-254.726
-255.611
-256.888
-257.388
-257.675
-257.841
-73.3877
-79.213
-83.8382
-89.5698
-95.0489
-100.946
-107.083
-113.386
-120.059
-126.938
-134.157
-141.739
-149.514
-157.92
-165.948
-174.082
-181.091
-188.515
-194.463
-201.172
-206.138
-212.175
-216.408
-221.737
-225.487
-229.929
-233.519
-236.788
-240.154
-242.515
-245.403
-247.507
-249.206
-249.953
-56.7666
-61.8955
-65.8486
-70.9094
-75.6473
-80.8346
-86.199
-91.7541
-97.6586
-103.79
-110.278
-117.157
-124.276
-132.079
-139.631
-147.443
-154.349
-161.851
-168.152
-175.394
-181.222
-188.317
-194.026
-201.096
-207.103
-214.109
-220.843
-227.702
-235.179
-241.874
-248.783
-254.485
-259.741
-263.94
-39.632
-44.0319
-47.2996
-51.6621
-55.6353
-60.0764
-64.6316
-69.4009
-74.4955
-79.8358
-85.5367
-91.6475
-98.0275
-105.109
-112.017
-119.256
-125.703
-132.768
-138.723
-145.526
-150.907
-157.269
-162.075
-167.731
-171.956
-176.397
-179.879
-182.745
-185.447
-186.758
-188.037
-188.217
-188.165
-188.678
-21.9886
-25.6563
-28.2107
-31.8201
-34.98
-38.6113
-42.2966
-46.212
-50.419
-54.8769
-59.6802
-64.8867
-70.3569
-76.4961
-82.4705
-88.766
-94.2874
-100.35
-105.299
-110.947
-115.159
-120.164
-123.658
-127.902
-130.957
-134.441
-137.431
-140.207
-143.33
-145.653
-148.429
-150.52
-152.335
-153.911
-3.90405
-6.76662
-8.55781
-11.3425
-13.6162
-16.3564
-19.0911
-22.0638
-25.2862
-28.7516
-32.5303
-36.6891
-41.0917
-46.121
-51.0015
-56.2232
-60.7456
-65.8242
-69.9396
-74.808
-78.4812
-83.0381
-86.3914
-90.5934
-93.8989
-97.6784
-101.132
-104.351
-107.711
-110.149
-112.802
-114.641
-116.207
-117.727
14.4213
12.5167
11.5944
9.74669
8.45023
6.69303
4.99977
3.066
0.930698
-1.43157
-4.06793
-7.06133
-10.2894
-14.1316
-17.8993
-22.0999
-25.747
-30.0249
-33.5126
-37.7975
-41.0425
-45.096
-47.9834
-51.4923
-53.9985
-56.657
-58.7542
-60.3705
-62.0675
-62.7113
-63.4343
-63.5255
-63.4288
-63.5577
33.1699
32.191
32.2131
31.3905
31.1499
30.4665
29.9053
29.1083
28.1644
27.0167
25.6395
23.9264
21.9787
19.4083
16.8039
13.6405
10.8694
7.40134
4.55716
0.886043
-1.9016
-5.52091
-8.16589
-11.4695
-14.0257
-16.9079
-19.5593
-21.9309
-24.7363
-26.7495
-28.8874
-30.5574
-32.0017
-33.0589
52.2675
52.2876
53.3029
53.563
54.4406
54.9083
55.5622
55.9975
56.3517
56.5374
56.5487
56.2532
55.7301
54.5784
53.2723
51.254
49.4246
46.7772
44.6661
41.5848
39.0084
35.5092
32.7133
29.1393
26.0884
22.663
19.3205
16.2295
13.0671
10.6851
8.17413
6.25244
4.53254
3.04741
71.6097
72.716
74.7744
76.1781
78.2318
79.9216
81.8706
83.634
85.3997
87.0497
88.5989
89.8901
90.9857
91.4737
91.7056
91.0776
90.4636
88.9322
87.5967
85.3226
83.7158
81.145
79.0717
76.4333
74.3924
72.2083
70.2933
68.7727
66.9262
65.8506
64.9415
64.4525
64.0469
63.5581
91.1148
93.3472
96.4788
99.0759
102.355
105.336
108.658
111.849
115.148
118.407
121.665
124.744
127.701
130.122
132.226
133.333
134.283
134.26
134.293
133.304
132.628
131.044
130.115
128.378
126.85
125.02
123.109
121.42
119.3
117.608
115.974
114.648
113.413
112.303
110.696
114.092
118.27
122.087
126.622
130.951
135.717
140.434
145.392
150.414
155.567
160.661
165.76
170.461
174.844
178.111
181.047
182.919
184.709
185.476
186.233
186.003
185.979
185.224
184.872
184.161
183.399
182.947
182.003
181.377
180.92
180.657
180.415
180.099
130.174
134.661
139.926
144.999
150.813
156.534
162.805
169.141
175.883
182.823
190.066
197.418
204.97
212.342
219.466
225.381
230.795
235.015
238.944
241.755
244.403
246.033
247.456
247.958
248.393
248.399
248.146
247.998
247.332
246.711
246.145
245.593
244.991
244.429
149.375
154.939
161.288
167.605
174.696
181.835
189.653
197.689
206.321
215.321
224.844
234.702
245.033
255.506
265.903
275.056
283.581
290.8
297.523
302.977
308.032
311.944
315.495
318.067
320.252
321.902
322.961
323.809
324.271
324.707
325.015
325.181
325.196
325.137
168.142
174.759
182.149
189.666
198.005
206.561
215.942
225.725
236.32
247.49
259.451
272.041
285.471
299.493
313.753
326.84
339.261
350.323
360.727
369.721
378.059
385.015
391.359
396.449
400.823
404.469
407.205
409.416
410.898
411.951
412.616
412.936
412.966
412.94
186.2
193.822
202.195
210.852
220.389
230.324
241.239
252.767
265.339
278.726
293.216
308.696
325.485
343.454
362.155
379.927
397.169
413.162
428.487
442.395
455.521
467.116
477.848
487.078
495.268
502.494
508.471
513.56
517.532
520.591
522.806
524.243
525.022
525.46
203.147
211.645
220.879
230.53
241.126
252.285
264.583
277.691
292.068
307.494
324.345
342.563
362.611
384.509
407.786
430.54
453.107
474.716
495.851
515.698
534.795
552.295
568.758
583.479
596.858
608.932
619.27
628.095
635.079
640.525
644.614
647.505
649.458
650.848
217.44
226.622
236.537
246.957
258.391
270.505
283.897
298.243
314.045
331.074
349.799
370.211
392.913
418.058
445.248
472.42
499.951
527.077
554.321
580.886
607.349
632.859
657.947
681.82
704.744
726.529
746.412
764.439
779.754
791.783
800.709
806.806
810.399
812.301
228.753
238.444
248.897
259.863
271.889
284.686
298.88
314.107
330.912
349.045
369.038
390.928
415.396
442.778
472.665
503.004
534.147
565.441
597.347
629.142
661.296
692.94
724.429
754.923
784.326
812.283
838.213
860.859
878.74
894.547
909.932
923.462
933.532
939.317
659.078
684.219
709.352
732.983
758.029
784.745
812.46
841.03
870.397
900.26
930.145
959.372
986.987
1011.55
1030.21
1040.85
1042.75
1035.68
1019.79
995.314
963.346
923.931
880.262
828.929
780.47
719.603
671.948
604.514
566.321
489.827
478.847
378.561
428.093
316.107
699.058
726.525
753.789
778.989
805.778
834.527
864.451
895.424
927.455
960.287
993.489
1026.42
1058.18
1087.41
1111.18
1126.97
1133.81
1131.32
1119.5
1098.5
1069.16
1031.63
988.572
937.495
887.034
824.139
774.414
700.5
658.132
568.339
547.78
426.674
445.29
270.75
739.829
768.567
797.466
824.503
853.219
884.101
916.4
949.993
984.934
1021.03
1057.89
1094.95
1131.39
1165.94
1195.37
1216.85
1229.29
1232.14
1225.19
1208.45
1182.55
1147.75
1106.19
1056.19
1004.78
941.346
890.048
812.826
766.193
668.748
645.765
514.462
530.848
374.535
781.49
811.323
841.75
870.688
901.364
934.369
969.051
1005.3
1043.2
1082.64
1123.3
1164.68
1206.06
1246.27
1282.03
1310.11
1329.18
1338.48
1337.57
1326.29
1305.02
1274.02
1235.03
1187.13
1136.16
1073.81
1020.48
941.879
893.339
791.254
762.153
617.174
613.595
416.664
822.184
853.107
885.015
915.894
948.599
983.782
1020.92
1059.94
1100.97
1143.94
1188.64
1234.68
1281.42
1327.93
1370.71
1406.08
1432.6
1449.28
1455.49
1450.8
1435.29
1409.16
1373.71
1328.59
1278.48
1217.32
1161.78
1084.2
1037.74
937.744
915.505
773.593
781.73
611.772
862.394
894.387
927.653
960.404
995.124
1032.48
1072.08
1113.89
1158.06
1204.64
1253.49
1304.34
1356.69
1409.77
1460.04
1503.56
1538.66
1564.08
1578.85
1582.27
1574.08
1554.23
1523.58
1482.07
1433.36
1373
1314.94
1237.74
1187.57
1088.11
1064.99
931.329
966.807
818.866
900.138
933.047
967.56
1002.15
1038.86
1078.33
1120.32
1164.85
1212.14
1262.31
1315.35
1371.11
1429.29
1489.4
1547.9
1600.37
1644.98
1680.27
1705.08
1718.4
1719.57
1708.22
1684.71
1648.97
1603.48
1545.1
1485.25
1405.64
1347.04
1243.16
1206.34
1059.5
1091.7
908.266
934.995
968.742
1004.34
1040.59
1079.11
1120.5
1164.7
1211.79
1262.03
1315.63
1372.71
1433.28
1497.22
1564.29
1630.96
1692.7
1747.67
1794.23
1830.88
1856.25
1869.25
1869.08
1855.54
1828.29
1788.87
1735.37
1675.97
1594.79
1527.52
1415.37
1364.18
1194.72
1195.76
932.171
966.166
1000.57
1037.05
1074.78
1114.95
1158.11
1204.32
1253.76
1306.72
1363.51
1424.38
1489.51
1559.01
1632.98
1708.09
1779.61
1845.55
1904.11
1953.61
1992.45
2019.16
2032.48
2031.61
2015.88
1985.84
1940.01
1883.69
1806.14
1735.08
1617.19
1557.07
1377.77
1364.84
1086.25
992.915
1027.86
1065.07
1104.07
1145.67
1190.34
1238.27
1289.72
1345.07
1404.68
1468.94
1538.22
1612.84
1693.22
1776.2
1856.96
1933.66
2004.58
2068
2122.06
2164.88
2194.74
2210.21
2209.93
2193.51
2159.5
2111.05
2040.54
1968.12
1849.07
1778.67
1590.37
1565.5
1250.48
1014.44
1049.72
1087.36
1127.29
1169.98
1215.8
1265.06
1318.1
1375.33
1437.22
1504.26
1576.98
1655.94
1741.91
1832.02
1921.59
2008.96
2092.42
2170.17
2240.25
2300.59
2349.09
2383.73
2402.56
2404.28
2386.88
2351.46
2291.91
2222.22
2109.77
2033.38
1832.95
1800.4
1480.58
1029.56
1065.02
1102.85
1143.36
1186.76
1233.33
1283.45
1337.54
1396.06
1459.53
1528.57
1603.84
1686.11
1776.46
1872.32
1969.26
2065.85
2160.58
2251.82
2337.75
2416.27
2485.07
2541.74
2583.76
2608.85
2614.18
2599.08
2557.97
2499.23
2398.22
2310.64
2106.58
2055.24
1677.95
1037.83
1073.29
1111
1151.65
1195.31
1242.14
1292.57
1347.07
1406.16
1470.39
1540.46
1617.16
1701.41
1794.55
1894.37
1996.8
2100.75
2205.01
2308.25
2408.87
2504.92
2594.15
2674.03
2741.72
2794.22
2828
2840.42
2825.52
2787
2703.94
2617.95
2420.35
2358.62
1967.36
1039.06
1074.26
1111.53
1151.93
1195.4
1242
1292.18
1346.47
1405.39
1469.53
1539.62
1616.55
1701.34
1795.5
1897.17
2002.76
2111.52
2222.59
2335.05
2447.71
2559.02
2667.07
2769.54
2863.58
2945.87
3012.3
3058.89
3079.18
3072.21
3018.77
2946.73
2767.44
2689.55
2268.23
1032.3
1066.95
1103.5
1143.23
1186.02
1231.87
1281.23
1334.62
1392.57
1455.69
1524.72
1600.55
1684.27
1777.49
1878.66
1984.71
2095.24
2209.78
2327.81
2448.63
2571.24
2694.29
2816
2934.02
3045.37
3146.12
3231.73
3295.17
3331.79
3323.74
3285.12
3143.29
3050.57
2599.47
1018.54
1052.35
1087.88
1126.54
1168.2
1212.8
1260.76
1312.61
1368.86
1430.1
1497.05
1570.61
1651.84
1742.34
1840.85
1944.83
2054.19
2168.77
2288.46
2413.04
2542.11
2675.02
2810.78
2947.9
3084.24
3216.66
3340.97
3450.55
3538.93
3589.11
3603.66
3519.1
3441.67
3018.68
997.406
1030.15
1064.44
1101.72
1141.87
1184.81
1230.92
1280.7
1334.65
1393.29
1457.31
1527.56
1605.04
1691.28
1785.24
1884.91
1990.46
2101.95
2219.6
2343.61
2474.11
2611.12
2754.46
2903.69
3057.85
3215.22
3373.02
3526.22
3668.36
3784.81
3868.78
3862.82
3833.16
3470.64
970.146
1001.54
1034.29
1069.83
1108.07
1148.93
1192.72
1239.92
1290.97
1346.37
1406.72
1472.78
1545.48
1626.17
1714.03
1807.56
1907.05
2012.78
2125.16
2244.69
2371.9
2507.35
2651.59
2805.1
2968.18
3140.71
3321.9
3509.33
3698.92
3880.13
4042.69
4140.85
4188.93
3934.64
936.015
965.957
997.161
1030.88
1067.1
1105.72
1147.02
1191.42
1239.31
1291.14
1347.43
1408.84
1476.19
1550.63
1631.55
1717.86
1809.97
1908.26
2013.27
2125.67
2246.26
2375.93
2515.72
2666.84
2830.56
3008.17
3200.84
3408.99
3631.99
3865.05
4100.02
4307.48
4465.84
4425.91
898.68
926.9
956.222
987.809
1021.67
1057.74
1096.25
1137.54
1181.96
1229.88
1281.76
1338.17
1399.79
1467.59
1541.1
1619.65
1703.67
1793.6
1890.04
1993.75
2105.64
2226.8
2358.55
2502.49
2660.54
2834.94
3028.3
3243.4
3482.98
3748.09
4036.92
4334.39
4609.49
4773.82
856.08
882.662
910.256
939.796
971.338
1004.86
1040.56
1078.75
1119.69
1163.64
1210.98
1262.17
1317.81
1378.7
1444.53
1514.96
1590.43
1671.38
1758.43
1852.33
1954.05
2064.68
2185.62
2318.56
2465.67
2629.59
2813.64
3021.89
3259.33
3531.43
3843.46
4194.51
4566.49
4876.27
807.515
832.2
857.953
885.315
914.398
945.232
977.992
1012.99
1050.49
1090.59
1133.58
1179.76
1229.64
1283.86
1342.22
1404.72
1471.79
1543.87
1621.55
1705.55
1796.77
1896.26
2005.36
2125.73
2259.46
2409.19
2578.19
2770.59
2991.75
3248.26
3548.09
3897.92
4287.36
4683.72
766.635
789.59
813.304
838.494
865.269
893.64
923.783
955.917
990.102
1026.5
1065.37
1107.04
1151.98
1200.56
1252.76
1308.78
1369.01
1433.86
1503.85
1579.65
1662.05
1752
1850.66
1959.42
2080.09
2215
2366.91
2539.24
2736.18
2962.9
3223.59
3518.52
3827.38
4026.63
708.082
729.498
751.793
774.994
799.399
825.203
852.52
881.384
911.8
944.003
978.177
1014.69
1053.7
1095.35
1139.69
1187.35
1238.8
1294.44
1354.75
1420.38
1492.07
1570.67
1657.2
1752.96
1859.63
1978.94
2112.77
2263.05
2432.57
2620.13
2830.78
3017.09
3224.22
2790.48
4.15358
4.1581
4.17904
4.2167
4.27073
4.34373
4.43862
4.55824
4.70607
4.88645
5.10465
5.36714
5.68206
6.05969
6.5133
7.06016
7.72343
8.53442
9.5375
10.7953
12.4021
14.5066
17.3515
21.2364
26.3213
32.5992
40.2717
49.6251
60.9875
74.7563
91.3344
111.17
134.66
162.166
193.865
229.761
269.493
312.404
357.373
403.045
447.73
489.895
527.969
561.135
588.484
610.643
626.634
640.118
646.477
4.01672
4.0205
4.04141
4.07907
4.1329
4.20551
4.29982
4.41864
4.56537
4.74432
4.96067
5.22083
5.53283
5.90684
6.35595
6.89724
7.55355
8.35584
9.34789
10.5917
12.1806
14.2615
17.0743
20.9199
25.962
32.1972
39.8293
49.1478
60.4877
74.255
90.8695
110.797
134.461
162.257
194.41
230.977
271.671
315.904
362.637
410.559
458.026
503.452
545.231
582.35
613.856
640.036
660.192
676.93
686.637
3.84622
3.85016
3.87091
3.90821
3.96149
4.03323
4.12635
4.24363
4.38841
4.56488
4.77818
5.0346
5.34203
5.71049
6.15285
6.68588
7.33208
8.12194
9.09854
10.323
11.8874
13.9363
16.7068
20.5011
25.4872
31.6659
39.2444
48.5147
59.8209
73.5775
90.2177
110.222
134.042
162.102
194.67
231.852
273.429
318.874
367.231
417.237
467.296
515.79
561.081
601.996
637.501
667.624
691.675
711.871
724.973
3.63707
3.64158
3.66162
3.69804
3.75027
3.82051
3.91167
4.02647
4.16818
4.34089
4.54962
4.80051
5.10129
5.46173
5.89441
6.41581
7.04793
7.82068
8.77622
9.97462
11.5063
13.5132
16.2286
19.9555
24.8685
30.9738
38.4817
47.6883
58.9457
72.679
89.3373
109.42
133.407
161.751
194.768
232.607
275.118
321.834
371.873
424.017
476.712
528.315
577.147
621.906
661.455
695.611
723.639
747.453
763.96
3.39206
3.39611
3.41528
3.45065
3.50149
3.56978
3.65837
3.76997
3.90771
4.07556
4.27841
4.52223
4.81452
5.16482
5.58537
6.09221
6.70679
7.45831
8.38785
9.55417
11.0456
13.001
15.6489
19.2931
24.1161
30.1305
37.5497
46.6732
57.8646
71.5575
88.2175
108.362
132.496
161.101
194.535
232.992
276.381
324.294
375.92
430.09
485.294
539.875
592.125
640.631
684.156
722.328
754.335
781.841
801.852
3.12188
3.12587
3.14437
3.17854
3.22771
3.29374
3.37938
3.48729
3.62049
3.7828
3.97895
4.21474
4.49744
4.83625
5.24306
5.73342
6.32817
7.05566
7.95579
9.08581
10.5319
12.4295
15.002
18.5528
23.2727
29.1814
36.4953
45.5175
56.6197
70.2444
86.8753
107.046
131.286
160.105
193.901
232.909
277.098
326.119
379.228
435.312
492.904
550.352
605.922
658.108
705.575
747.779
783.83
815.159
838.936
2.84898
2.85277
2.87047
2.90335
2.95079
3.0145
3.09711
3.20121
3.3297
3.48629
3.67551
3.90298
4.17571
4.50261
4.89519
5.36849
5.94271
6.64534
7.51511
8.60778
10.0071
11.8449
14.3391
17.7917
22.401
28.1942
35.3896
44.2933
55.2856
68.8176
85.3849
105.536
129.823