/*--------------------------------*- C++ -*----------------------------------*\
| =========                 |                                                 |
| \\      /  F ield         | OpenFOAM: The Open Source CFD Toolbox           |
|  \\    /   O peration     | Version:  2.3.0                                 |
|   \\  /    A nd           | Web:      www.OpenFOAM.org                      |
|    \\/     M anipulation  |                                                 |
\*---------------------------------------------------------------------------*/
FoamFile
{
    version     2.0;
    format      ascii;
    class       surfaceScalarField;
    location    "0";
    object      phi;
}
// * * * * * * * * * * * * * * * * * * * * * * * * * * * * * * * * * * * * * //

dimensions      [0 3 -1 0 0 0 0];

internalField   nonuniform List<scalar> 
28550
(
0.637506
1.11045
-1.08608
-0.661873
0.606239
1.08048
-1.04922
0.577777
1.0852
-1.05674
0.55021
1.09138
-1.06381
0.522831
1.09833
-1.07095
0.495363
1.10585
-1.07838
0.467688
1.11392
-1.08625
0.439748
1.1226
-1.09465
0.411512
1.13195
-1.10371
0.382955
1.1421
-1.11354
0.354057
1.15319
-1.12429
0.324802
1.16541
-1.13616
0.295172
1.17903
-1.1494
0.264861
1.20626
-1.17595
0.236953
1.1121
-1.0842
0.211298
1.02567
-1.00001
0.187755
0.946337
-0.922794
0.166196
0.873509
-0.851951
0.146493
0.80663
-0.786928
0.128532
0.745175
-0.727215
0.112198
0.688671
-0.672336
0.0973814
0.636672
-0.621857
0.0839811
0.588774
-0.575374
0.0718971
0.544607
-0.532522
0.0610317
0.503834
-0.492969
0.0512879
0.466155
-0.456411
0.0425656
0.431299
-0.422577
0.0347583
0.399031
-0.391224
0.0277498
0.369153
-0.362145
0.0214151
0.341504
-0.335169
0.0156353
0.315966
-0.310185
0.010341
0.292464
-0.28717
0.00556608
0.270958
-0.266183
0.260421
-0.254853
0.580229
1.13394
-0.60372
0.55718
1.10353
0.532828
1.10955
0.508134
1.11607
0.48328
1.12318
0.458254
1.13088
0.433014
1.13917
0.407525
1.14809
0.381758
1.15772
0.355693
1.16816
0.32931
1.17957
0.302598
1.19213
0.275546
1.20608
0.247874
1.23393
0.222408
1.13757
0.199008
1.04907
0.177543
0.967802
0.15789
0.893161
0.139934
0.824585
0.123561
0.761549
0.108666
0.703565
0.0951455
0.650192
0.0828962
0.601023
0.0718182
0.555685
0.0618066
0.513846
0.0527525
0.475208
0.0445398
0.439511
0.0370454
0.406526
0.0301411
0.376058
0.0237036
0.347943
0.0176341
0.322035
0.0118911
0.298207
0.00652508
0.276323
0.266949
0.532867
1.15858
-0.557507
0.512169
1.12423
0.490711
1.13101
0.468717
1.13807
0.446357
1.14554
0.423705
1.15353
0.400775
1.1621
0.377562
1.1713
0.35405
1.18123
0.330223
1.19199
0.306061
1.20373
0.28155
1.21664
0.256674
1.23095
0.231168
1.25944
0.207639
1.1611
0.185965
1.07074
0.166034
0.987732
0.147737
0.911457
0.130973
0.841348
0.115643
0.776878
0.101653
0.717555
0.0889069
0.662938
0.0773136
0.612616
0.0667782
0.56622
0.0572047
0.523419
0.048497
0.483915
0.0405603
0.447447
0.0333055
0.413781
0.0266556
0.382709
0.0205536
0.354046
0.0149707
0.327619
0.00990878
0.303268
0.00541127
0.28082
0.272363
0.487913
1.18339
-0.512724
0.468926
1.14322
0.449595
1.15034
0.429856
1.15781
0.409735
1.16566
0.389269
1.174
0.36848
1.18289
0.347372
1.19241
0.325937
1.20266
0.304161
1.21377
0.282028
1.22586
0.259518
1.23915
0.236608
1.25386
0.21305
1.28299
0.191252
1.18289
0.171105
1.09089
0.152517
1.00632
0.135395
0.928578
0.119651
0.857092
0.105202
0.791326
0.0919609
0.730796
0.0798513
0.675048
0.0687913
0.623676
0.0587024
0.576308
0.0495124
0.532608
0.0411527
0.492274
0.0335659
0.455033
0.0267091
0.420638
0.0205601
0.388859
0.0151213
0.359485
0.0104231
0.332317
0.00652408
0.307167
0.00349596
0.283847
0.275863
0.46804
1.20623
-0.490872
0.450528
1.16073
0.432582
1.16829
0.414243
1.17614
0.39553
1.18438
0.376456
1.19307
0.357032
1.20231
0.337258
1.21218
0.317125
1.2228
0.296624
1.23427
0.275735
1.24675
0.254433
1.26045
0.232698
1.2756
0.21028
1.30541
0.189469
1.2037
0.17018
1.11017
0.152323
1.02417
0.135821
0.945079
0.1206
0.872312
0.106581
0.805344
0.0936955
0.743681
0.0818707
0.686872
0.0710417
0.634505
0.0611456
0.586204
0.052125
0.541628
0.043931
0.500467
0.0365197
0.462444
0.0298499
0.427308
0.0238759
0.394834
0.018538
0.364824
0.0137489
0.337107
0.00938199
0.311532
0.0052899
0.287937
0.281157
0.429527
1.22725
-0.450541
0.413695
1.17656
0.397642
1.18434
0.381282
1.1925
0.364583
1.20108
0.347533
1.21012
0.330125
1.21972
0.31235
1.22996
0.2942
1.24094
0.275655
1.25281
0.256695
1.26571
0.237295
1.27985
0.217422
1.29547
0.196845
1.32599
0.177666
1.22288
0.159811
1.12803
0.143219
1.04077
0.127828
0.96047
0.113573
0.886567
0.100398
0.818518
0.0882434
0.755835
0.0770532
0.698062
0.0667707
0.644787
0.0573468
0.595627
0.0487336
0.55024
0.0408882
0.508312
0.0337723
0.46956
0.0273478
0.433733
0.0215741
0.400609
0.0164064
0.369992
0.0117988
0.341714
0.00772011
0.315611
0.0041652
0.291492
0.285328
0.405069
1.24669
-0.42451
0.390733
1.19089
0.376109
1.19896
0.361182
1.20743
0.345929
1.21633
0.330331
1.22572
0.314371
1.23568
0.298033
1.24629
0.281298
1.25768
0.264146
1.26996
0.246554
1.28331
0.228488
1.29791
0.209914
1.31404
0.190607
1.3453
0.172537
1.24095
0.155654
1.14491
0.139907
1.05651
0.125247
0.97513
0.111629
0.900183
0.0990064
0.831141
0.0873313
0.76751
0.0765534
0.70884
0.0666226
0.654717
0.0574898
0.604759
0.0491041
0.558624
0.0414172
0.515998
0.0343825
0.476595
0.0279589
0.440158
0.022111
0.406459
0.0168134
0.375292
0.0120552
0.346474
0.0078362
0.31983
0.00415724
0.29517
0.28949
0.377141
1.26408
-0.394528
0.364434
1.2036
0.351465
1.21193
0.338202
1.22069
0.324622
1.22991
0.310699
1.23964
0.29641
1.24996
0.281736
1.26097
0.26665
1.27276
0.251127
1.28548
0.235135
1.2993
0.218641
1.31441
0.201603
1.33108
0.183802
1.3631
0.16706
1.25769
0.151339
1.16063
0.13661
1.07124
0.122843
0.988897
0.110006
0.91302
0.0980706
0.843076
0.0870024
0.778578
0.0767646
0.719077
0.0673206
0.66416
0.0586188
0.61346
0.0506119
0.566631
0.0432418
0.523367
0.0364543
0.483384
0.0301881
0.446425
0.0243873
0.412261
0.0189959
0.380684
0.0139643
0.351505
0.00926081
0.324532
0.00487419
0.299555
0.29437
0.350425
1.28
-0.366342
0.339123
1.2149
0.32753
1.22353
0.315631
1.23259
0.303409
1.24213
0.290838
1.25221
0.277893
1.26291
0.264548
1.27431
0.250771
1.28654
0.23653
1.29972
0.221788
1.31404
0.206502
1.32969
0.190624
1.34696
0.173938
1.37978
0.15815
1.27348
0.143241
1.17554
0.129195
1.08529
0.115996
1.00209
0.103633
0.925383
0.0920846
0.854624
0.0813385
0.789324
0.0713768
0.729038
0.0621762
0.67336
0.0537116
0.621923
0.0459476
0.574394
0.038843
0.530472
0.0323443
0.489883
0.0263969
0.452374
0.0209479
0.417712
0.0159549
0.385678
0.0113996
0.35606
0.00728784
0.328643
0.00364607
0.303196
0.298021
0.334147
1.29348
-0.347624
0.323853
1.22519
0.313263
1.23411
0.302364
1.24349
0.29113
1.25336
0.27954
1.2638
0.267561
1.27488
0.255163
1.28671
0.242312
1.29939
0.228969
1.31307
0.215089
1.32792
0.200625
1.34416
0.185517
1.36207
0.16955
1.39575
0.154357
1.28867
0.139929
1.18997
0.126262
1.09895
0.113357
1.015
0.101204
0.937536
0.0897986
0.866029
0.0791291
0.799993
0.0691923
0.738975
0.0599806
0.682571
0.0514931
0.630411
0.0437288
0.582158
0.0366807
0.53752
0.0303344
0.49623
0.0246521
0.458058
0.0195677
0.422798
0.014992
0.390255
0.0108271
0.360226
0.00699682
0.332473
0.00346276
0.306729
0.301489
0.299533
1.30566
-0.311721
0.290925
1.2338
0.282078
1.24296
0.272935
1.25263
0.263463
1.26283
0.253628
1.27363
0.243401
1.28511
0.232744
1.29736
0.221622
1.31051
0.209989
1.3247
0.197797
1.34011
0.18499
1.35696
0.171507
1.37555
0.157137
1.41012
0.143351
1.30246
0.130161
1.20316
0.117584
1.11153
0.105627
1.02696
0.0943011
0.948862
0.0836008
0.876729
0.0735262
0.810068
0.0640591
0.748441
0.055188
0.691442
0.0469003
0.638698
0.0391869
0.589872
0.032053
0.544655
0.0255123
0.502772
0.0196027
0.46397
0.0143758
0.428026
0.00989731
0.394734
0.00622697
0.363896
0.00338277
0.335317
0.00130983
0.308802
0.302802
0.296532
1.31563
-0.306499
0.289191
1.24114
0.281464
1.25069
0.273397
1.2607
0.264984
1.27125
0.256204
1.28241
0.247023
1.29429
0.237406
1.30698
0.227309
1.32061
0.216686
1.33532
0.205488
1.35131
0.193652
1.3688
0.181115
1.38809
0.167673
1.42356
0.154702
1.31543
0.142229
1.21563
0.130283
1.12348
0.11889
1.03835
0.108066
0.959685
0.0978272
0.886969
0.0881691
0.819725
0.0790846
0.757527
0.070547
0.699979
0.0625205
0.646726
0.0549529
0.597439
0.0477902
0.551819
0.0409725
0.50959
0.0344459
0.470498
0.0281629
0.43431
0.0220901
0.400808
0.0162101
0.369776
0.0105218
0.341005
0.00502964
0.314294
0.307834
0.270731
1.32272
-0.277827
0.264164
1.2477
0.257361
1.25749
0.250249
1.26781
0.24279
1.2787
0.23495
1.29025
0.226691
1.30255
0.217973
1.3157
0.208751
1.32983
0.19897
1.3451
0.188573
1.3617
0.177497
1.37987
0.165665
1.39992
0.152869
1.43635
0.140423
1.32788
0.128365
1.22769
0.116738
1.1351
0.105581
1.04951
0.0949302
0.970337
0.0848164
0.897083
0.0752696
0.829273
0.0663101
0.766487
0.0579522
0.708338
0.0501992
0.654479
0.0430419
0.604597
0.0364516
0.55841
0.0303871
0.515656
0.0247841
0.476101
0.0195857
0.439509
0.014747
0.405646
0.010263
0.374261
0.00616102
0.345106
0.00249017
0.317965
0.310325
0.249436
1.32857
-0.255287
0.243712
1.25343
0.237689
1.26351
0.231345
1.27415
0.224647
1.2854
0.217554
1.29735
0.210027
1.31008
0.202019
1.3237
0.193481
1.33837
0.184355
1.35422
0.17458
1.37148
0.164083
1.39037
0.152788
1.41121
0.140484
1.44866
0.12843
1.33993
0.116681
1.23944
0.105288
1.1465
0.0942983
1.0605
0.0837523
0.980883
0.0736886
0.907147
0.064137
0.838826
0.0551315
0.775493
0.0467024
0.716769
0.0388796
0.662303
0.0316967
0.611782
0.0251876
0.56492
0.0193794
0.521465
0.0143048
0.481177
0.00998521
0.443829
0.00642984
0.409202
0.00362063
0.37707
0.00150131
0.347226
-2.13607e-05
0.319487
0.310302
0.237799
1.33211
-0.241344
0.233374
1.25785
0.228615
1.26827
0.223523
1.27924
0.218076
1.29085
0.212237
1.30319
0.205962
1.31635
0.199207
1.33046
0.191921
1.34565
0.184044
1.3621
0.175517
1.38
0.166271
1.39961
0.156232
1.42125
0.145206
1.45968
0.134331
1.35081
0.123677
1.25009
0.113305
1.15687
0.103268
1.07053
0.0936132
0.99054
0.0843695
0.916392
0.0755629
0.847634
0.0672032
0.783854
0.0592904
0.724683
0.0518172
0.669777
0.044772
0.618828
0.0381413
0.571551
0.0319145
0.527693
0.0260813
0.48701
0.0206377
0.449273
0.0155782
0.414261
0.0108893
0.381759
0.00654396
0.35157
0.00250635
0.323523
0.312808
0.223694
1.33299
-0.224579
0.219715
1.26183
0.215483
1.2725
0.210942
1.28378
0.206043
1.29575
0.200747
1.30848
0.195003
1.32209
0.188763
1.3367
0.18197
1.35245
0.17457
1.3695
0.166496
1.38808
0.157681
1.40843
0.148051
1.43088
0.137424
1.47031
0.126903
1.36133
0.116571
1.26043
0.106502
1.16694
0.0967595
1.08028
0.0873921
0.999909
0.0784468
0.925339
0.0699522
0.85613
0.0619303
0.791877
0.0543975
0.732217
0.0473472
0.676828
0.0407669
0.625409
0.0346217
0.577697
0.0288728
0.533442
0.0234821
0.492401
0.0184286
0.454327
0.0137072
0.418983
0.00933113
0.386134
0.00531701
0.355584
0.00167711
0.327163
0.314484
0.200207
1.33229
-0.199509
0.196696
1.26534
0.192946
1.27625
0.188893
1.28783
0.184483
1.30016
0.17966
1.3133
0.174377
1.32738
0.168574
1.3425
0.162199
1.35882
0.155189
1.37651
0.147482
1.39578
0.139008
1.4169
0.1297
1.44019
0.119374
1.48064
0.109119
1.37159
0.0990332
1.27051
0.089206
1.17677
0.0797082
1.08978
0.0706031
1.00902
0.0619309
0.934012
0.0537238
0.864339
0.0459973
0.799604
0.0387709
0.739445
0.0320592
0.683539
0.0258883
0.631581
0.0202885
0.583297
0.0153054
0.538427
0.0109742
0.496732
0.00732255
0.457979
0.00434712
0.421958
0.00201212
0.388469
0.000250852
0.357345
-0.00101582
0.328429
0.313467
0.192067
1.32992
-0.189698
0.189273
1.26813
0.186224
1.2793
0.182872
1.29119
0.179164
1.30387
0.175045
1.31742
0.170466
1.33196
0.165372
1.3476
0.159706
1.36449
0.153415
1.3828
0.146437
1.40276
0.138713
1.42463
0.130183
1.44872
0.120689
1.49013
0.111247
1.38103
0.101964
1.2798
0.0929376
1.1858
0.0842526
1.09846
0.07598
1.01729
0.0681764
0.941816
0.0608833
0.871632
0.0541194
0.806368
0.0478742
0.74569
0.0421165
0.689298
0.0367817
0.636916
0.0317934
0.588286
0.0270642
0.543156
0.0225277
0.50127
0.0181271
0.46238
0.0138429
0.426243
0.00967228
0.392639
0.00563373
0.361382
0.00174614
0.332316
0.315213
0.175966
1.32687
-0.172918
0.172626
1.27147
0.169055
1.28287
0.165178
1.29506
0.160938
1.30811
0.156283
1.32208
0.151159
1.33708
0.14552
1.35324
0.139311
1.3707
0.132478
1.38964
0.124969
1.41027
0.116731
1.43287
0.107708
1.45775
0.0977487
1.50009
0.0879171
1.39086
0.0783174
1.2894
0.06903
1.19508
0.0601243
1.10737
0.0516498
1.02576
0.0436477
0.949819
0.0361476
0.879133
0.0291846
0.813332
0.0227937
0.752081
0.0170209
0.695071
0.0119184
0.642019
0.00754109
0.592664
0.00393353
0.546765
0.00111579
0.504089
-0.000921591
0.464418
-0.00222878
0.427551
-0.00288596
0.393298
-0.00298991
0.361487
-0.00264581
0.331972
0.312567
0.158592
1.32292
-0.15465
0.156261
1.27381
0.153652
1.28548
0.150756
1.29796
0.147539
1.31132
0.143968
1.32565
0.140009
1.34104
0.135622
1.35763
0.130772
1.37555
0.125426
1.39499
0.119547
1.41615
0.113111
1.43931
0.106089
1.46477
0.0983865
1.5078
0.0908488
1.3984
0.0835668
1.29668
0.0766091
1.20204
0.0700306
1.11395
0.0638615
1.03193
0.0581162
0.955565
0.052788
0.884461
0.0478469
0.818273
0.0432462
0.756682
0.0389194
0.699398
0.0347941
0.646144
0.0307891
0.59667
0.026834
0.55072
0.0228675
0.508056
0.0188532
0.468433
0.0147808
0.431624
0.0106636
0.397415
0.00653058
0.365621
0.00242276
0.336081
0.314989
0.142483
1.32026
-0.139832
0.139092
1.2772
0.1354
1.28917
0.131398
1.30196
0.127071
1.31565
0.122391
1.33033
0.117332
1.3461
0.111865
1.36309
0.105961
1.38145
0.0995898
1.40136
0.0927279
1.42302
0.0853495
1.44669
0.0774389
1.47268
0.068901
1.51634
0.0606643
1.40664
0.0527999
1.30455
0.0453648
1.20948
0.0383998
1.12091
0.0319406
1.03839
0.0260104
0.961496
0.0206302
0.889841
0.0158154
0.823088
0.0115737
0.760923
0.00791196
0.70306
0.00482216
0.649234
0.00229778
0.599195
0.000317177
0.552701
-0.00114472
0.509518
-0.0021232
0.469412
-0.00265766
0.432159
-0.00279679
0.397556
-0.00259258
0.365417
-0.00209788
0.335587
0.312892
0.125575
1.31759
-0.122911
0.122602
1.28017
0.119366
1.29241
0.115849
1.30548
0.112038
1.31946
0.10792
1.33445
0.103473
1.35055
0.0986823
1.36789
0.0935266
1.38661
0.0879928
1.40689
0.082066
1.42894
0.0757403
1.45301
0.0690155
1.47941
0.061829
1.52353
0.0549754
1.41349
0.0485116
1.31101
0.0424772
1.21551
0.0368914
1.1265
0.0317599
1.04353
0.0270752
0.966181
0.0228196
0.894097
0.0189746
0.826934
0.0155197
0.764378
0.0124396
0.706141
0.00972677
0.651947
0.00737435
0.601548
0.00537521
0.5547
0.00371688
0.511177
0.00237286
0.470757
0.00130651
0.433227
0.00046919
0.398393
-0.000183176
0.366071
-0.000698584
0.336104
0.312193
0.110371
1.31546
-0.10824
0.107788
1.28275
0.104951
1.29524
0.101861
1.30857
0.0985085
1.32282
0.0948865
1.33807
0.0909869
1.35445
0.0867994
1.37207
0.0823165
1.39109
0.0775321
1.41168
0.0724449
1.43403
0.067057
1.4584
0.061386
1.48508
0.0553917
1.52952
0.0497518
1.41913
0.0445157
1.31625
0.0397135
1.22032
0.0353663
1.13085
0.0314759
1.04742
0.0280335
0.969623
0.0250103
0.897121
0.0223648
0.82958
0.0200393
0.766704
0.0179668
0.708214
0.0160693
0.653845
0.0142708
0.603346
0.0125029
0.556469
0.0107126
0.512968
0.00886651
0.472603
0.0069553
0.435137
0.00499536
0.400354
0.00300761
0.368059
0.00102796
0.338084
0.313222
0.103074
1.31469
-0.102313
0.0994842
1.28634
0.0956091
1.29912
0.0914688
1.31271
0.087068
1.32722
0.0824019
1.34274
0.0774658
1.35939
0.0722529
1.37729
0.0667586
1.39659
0.0609792
1.41746
0.0549147
1.4401
0.0485695
1.46475
0.0419564
1.49169
0.0350272
1.53645
0.0285408
1.42562
0.0225296
1.32226
0.0170143
1.22583
0.0120087
1.13585
0.00752181
1.0519
0.00355551
0.97359
0.000114337
0.900562
-0.00279994
0.832494
-0.00518551
0.76909
-0.00704157
0.71007
-0.00836965
0.655173
-0.00917502
0.604152
-0.00947225
0.556766
-0.00928525
0.512781
-0.008648
0.471966
-0.0076112
0.434102
-0.00623877
0.398981
-0.00459207
0.366414
-0.00274035
0.336234
0.310481
0.0946374
1.31284
-0.0927925
0.0916351
1.28935
0.0884361
1.30232
0.0850285
1.31612
0.0814163
1.33083
0.0775952
1.34656
0.0735661
1.36342
0.0693312
1.38152
0.0648928
1.40103
0.0602595
1.42209
0.0554399
1.44492
0.0504522
1.46973
0.0453194
1.49682
0.0400221
1.54175
0.0351458
1.4305
0.0307035
1.3267
0.0266942
1.22984
0.0231067
1.13944
0.019921
1.05509
0.0171112
0.9764
0.0146481
0.903025
0.012496
0.834646
0.0106204
0.770966
0.00898495
0.711705
0.0075586
0.6566
0.00630726
0.605403
0.00520128
0.557872
0.0042135
0.513769
0.00331451
0.472865
0.00247706
0.434938
0.00168281
0.399777
0.00091133
0.367185
0.000152023
0.336993
0.310634
0.0743656
1.31105
-0.0725734
0.0716471
1.29207
0.068795
1.30517
0.0657863
1.31912
0.0626105
1.334
0.0592703
1.3499
0.0557648
1.36692
0.052101
1.38519
0.0482883
1.40484
0.0443381
1.42604
0.0402696
1.44898
0.0361095
1.4739
0.0318863
1.50105
0.0276028
1.54603
0.023739
1.43436
0.0202943
1.33015
0.0172611
1.23287
0.0146142
1.14209
0.0123272
1.05738
0.0103703
0.978357
0.00870716
0.904689
0.00730221
0.836052
0.00612004
0.772148
0.00512266
0.712703
0.0042707
0.657452
0.00353398
0.60614
0.00288168
0.558525
0.00228634
0.514365
0.00173464
0.473417
0.00121848
0.435456
0.000734578
0.40026
0.000288129
0.367633
-0.000117583
0.3374
0.310516
0.0641924
1.31005
-0.063195
0.0610945
1.29516
0.0578239
1.30844
0.0543989
1.32255
0.0508222
1.33758
0.0470982
1.35362
0.0432327
1.37079
0.0392319
1.38919
0.0351063
1.40897
0.030873
1.43028
0.0265513
1.45331
0.0221694
1.47828
0.0177684
1.50545
0.0133485
1.55045
0.00941031
1.4383
0.00594936
1.33361
0.00294667
1.23588
0.00038067
1.14466
-0.00178024
1.05954
-0.00357179
0.980149
-0.00502354
0.906141
-0.00616584
0.837194
-0.00701885
0.773001
-0.00759621
0.713281
-0.00790358
0.657759
-0.00794594
0.606183
-0.00772558
0.558305
-0.00724727
0.513886
-0.00652661
0.472696
-0.00558715
0.434515
-0.0044612
0.399135
-0.00319057
0.366361
-0.00181461
0.336023
0.308702
0.0509738
1.30879
-0.0497209
0.0483503
1.29779
0.0456237
1.31117
0.0427881
1.32538
0.0398435
1.34052
0.0367964
1.35667
0.0336531
1.37393
0.0304273
1.39241
0.0271324
1.41226
0.0237897
1.43362
0.0204276
1.45667
0.0170805
1.48162
0.0137944
1.50873
0.0105995
1.55365
0.00787036
1.44103
0.00560702
1.33587
0.00379269
1.23769
0.00240262
1.14605
0.0014043
1.06054
0.000759505
0.980794
0.000413876
0.906486
0.000314659
0.837293
0.0004014
0.772915
0.000608934
0.713073
0.000875805
0.657493
0.00114132
0.605918
0.00135627
0.55809
0.001479
0.513764
0.00148146
0.472694
0.00135263
0.434645
0.00109309
0.399393
0.000720231
0.366735
0.000254038
0.33649
0.308956
0.0384362
1.30835
-0.037999
0.0355328
1.30069
0.0325379
1.31416
0.0294463
1.32848
0.0262653
1.34371
0.0229957
1.35994
0.0196525
1.37727
0.0162425
1.39582
0.0127859
1.41572
0.00929978
1.4371
0.00581139
1.46016
0.00235474
1.48508
-0.0010279
1.51212
-0.00431292
1.55693
-0.00712069
1.44384
-0.00946201
1.33821
-0.0113506
1.23958
-0.0128073
1.1475
-0.0138548
1.06158
-0.0145177
0.981457
-0.014822
0.906791
-0.0147952
0.837267
-0.0144692
0.772589
-0.013873
0.712477
-0.0130443
0.656664
-0.0120119
0.604885
-0.0108144
0.556893
-0.00948206
0.512432
-0.00804583
0.471258
-0.00653442
0.433132
-0.00497049
0.397831
-0.00338217
0.365146
-0.00178699
0.334894
0.307169
0.03125
1.30781
-0.0307066
0.0287226
1.30322
0.0261014
1.31678
0.0234091
1.33117
0.0206543
1.34646
0.0178508
1.36274
0.0150074
1.38012
0.0121412
1.39869
0.00926726
1.41859
0.00641139
1.43996
0.0035971
1.46297
0.000860017
1.48782
-0.00175961
1.51474
-0.00423835
1.55941
-0.00629126
1.44589
-0.0079436
1.33987
-0.00922751
1.24086
-0.0101745
1.14845
-0.0108164
1.06222
-0.0111893
0.98183
-0.011321
0.906922
-0.0112365
0.837182
-0.0109623
0.772315
-0.0105128
0.712028
-0.00990354
0.656055
-0.00915158
0.604134
-0.0082668
0.556008
-0.00726677
0.511432
-0.00617115
0.470162
-0.00500234
0.431965
-0.00379024
0.396617
-0.00255981
0.363916
-0.00133548
0.333671
0.305834
0.0223359
1.30651
-0.0210378
0.0204799
1.30508
0.0185843
1.31868
0.0166577
1.33309
0.0147121
1.34841
0.0127608
1.36469
0.0108164
1.38206
0.00889826
1.40061
0.00702559
1.42046
0.00522264
1.44176
0.0035213
1.46467
0.00195445
1.48939
0.000562721
1.51613
-0.000613967
1.56059
-0.00143966
1.44672
-0.00194935
1.34038
-0.00218304
1.2411
-0.00218626
1.14845
-0.00200775
1.06205
-0.00169333
0.981515
-0.0012869
0.906516
-0.000832767
0.836728
-0.000367
0.771849
7.44401e-05
0.711586
0.00046431
0.655666
0.000780215
0.603818
0.0010036
0.555785
0.00112362
0.511312
0.00113851
0.470148
0.00104935
0.432053
0.00086838
0.3968
0.000607962
0.364175
0.00028545
0.333992
0.30612
0.00907554
1.30544
-0.00800922
0.00707345
1.30708
0.00507193
1.32068
0.00306712
1.3351
0.00106642
1.35041
-0.000923552
1.36668
-0.00288633
1.38402
-0.00480904
1.40253
-0.00666887
1.42232
-0.00844291
1.44354
-0.0101025
1.46633
-0.0116152
1.4909
-0.01294
1.51745
-0.014044
1.56169
-0.014796
1.44747
-0.0152294
1.34081
-0.0153854
1.24125
-0.0153017
1.14837
-0.01502
1.06176
-0.0145745
0.98107
-0.0140009
0.905943
-0.0133245
0.836052
-0.0125653
0.77109
-0.011737
0.710758
-0.0108445
0.654773
-0.0098884
0.602862
-0.00886621
0.554763
-0.00777367
0.51022
-0.00661011
0.468984
-0.00537851
0.430823
-0.00409191
0.395512
-0.00275751
0.362842
-0.00139918
0.332634
0.30472
-0.00390624
1.30455
0.00480014
-0.00558281
1.30875
-0.0072417
1.32234
-0.00887948
1.33674
-0.0104897
1.35202
-0.01206
1.36825
-0.0135785
1.38554
-0.0150229
1.40398
-0.0163756
1.42368
-0.0176119
1.44477
-0.018703
1.46743
-0.0196118
1.49181
-0.0202987
1.51814
-0.0207175
1.56211
-0.0208072
1.44756
-0.0205979
1.3406
-0.0201208
1.24078
-0.0194074
1.14766
-0.0184881
1.06085
-0.0173908
0.979973
-0.0161427
0.904695
-0.0147756
0.834685
-0.0133181
0.769633
-0.0118043
0.709244
-0.0102702
0.653239
-0.00874976
0.601342
-0.00727982
0.553293
-0.0058909
0.50883
-0.00460865
0.467702
-0.00344674
0.429659
-0.00240686
0.394474
-0.00149414
0.361928
-0.000693809
0.331833
0.304027
-0.0111068
1.30393
0.0117259
-0.0127981
1.31045
-0.0144858
1.32403
-0.0161463
1.3384
-0.0177665
1.35364
-0.0193294
1.36982
-0.0208201
1.38703
-0.0222223
1.40538
-0.0235159
1.42497
-0.0246755
1.44593
-0.0256726
1.46842
-0.0264753
1.49261
-0.0270451
1.51871
-0.0273366
1.5624
-0.0273031
1.44752
-0.0269825
1.34028
-0.0264063
1.2402
-0.0256127
1.14686
-0.0246279
1.05986
-0.0234858
0.978831
-0.0222092
0.903418
-0.020823
0.833299
-0.0193433
0.768153
-0.0177847
0.707686
-0.0161583
0.651613
-0.014474
0.599657
-0.0127346
0.551554
-0.0109477
0.507044
-0.00912297
0.465877
-0.00727167
0.42781
-0.00541332
0.392614
-0.00356132
0.360077
-0.00173582
0.330008
0.302291
-0.0199462
1.30273
0.0211385
-0.0210094
1.31151
-0.0220196
1.32504
-0.0229675
1.33934
-0.0238368
1.3545
-0.0246159
1.3706
-0.0252861
1.3877
-0.0258297
1.40592
-0.0262229
1.42536
-0.0264405
1.44615
-0.0264539
1.46844
-0.0262302
1.49239
-0.0257279
1.51821
-0.0248932
1.56157
-0.0238046
1.44644
-0.0225001
1.33898
-0.0210231
1.23872
-0.0194128
1.14525
-0.0177098
1.05816
-0.0159498
0.977071
-0.0141713
0.90164
-0.0124045
0.831532
-0.0106843
0.766433
-0.00903934
0.706041
-0.00749329
0.650067
-0.00606878
0.598233
-0.00478305
0.550269
-0.00365136
0.505912
-0.00267556
0.464902
-0.00185816
0.42699
-0.00118688
0.391944
-0.000653723
0.359543
-0.000240267
0.329594
0.30205
-0.0309711
1.30161
0.0320928
-0.0319089
1.31245
-0.0327646
1.32589
-0.0335337
1.34011
-0.0342071
1.35518
-0.0347688
1.37116
-0.0352039
1.38814
-0.0354925
1.40621
-0.0356143
1.42549
-0.0355439
1.44608
-0.0352543
1.46815
-0.0347135
1.49185
-0.033887
1.51738
-0.0327197
1.5604
-0.0313317
1.44505
-0.0297656
1.33741
-0.0280641
1.23702
-0.0262668
1.14345
-0.0244103
1.0563
-0.0225264
0.975187
-0.020641
0.899755
-0.0187762
0.829667
-0.0169476
0.764604
-0.0151631
0.704257
-0.0134293
0.648334
-0.011746
0.59655
-0.0101123
0.548635
-0.00852309
0.504323
-0.00697616
0.463355
-0.0054693
0.425485
-0.00400677
0.39048
-0.0025875
0.358124
-0.00121665
0.328224
0.300834
-0.0403994
1.30045
0.0415619
-0.0410355
1.31308
-0.0415769
1.32643
-0.0420124
1.34055
-0.042331
1.3555
-0.0425175
1.37134
-0.0425541
1.38818
-0.0424224
1.40608
-0.042101
1.42516
-0.0415671
1.44555
-0.0407921
1.46737
-0.0397473
1.4908
-0.038396
1.51603
-0.0366874
1.55869
-0.0347928
1.44315
-0.0327599
1.33538
-0.0306295
1.23489
-0.0284366
1.14126
-0.0262152
1.05408
-0.0239908
0.972962
-0.0217864
0.89755
-0.0196213
0.827502
-0.0175051
0.762488
-0.0154552
0.702206
-0.0134774
0.646356
-0.0115824
0.594655
-0.00977452
0.546827
-0.00806251
0.502611
-0.00644902
0.461742
-0.00493796
0.423972
-0.00352599
0.38907
-0.00221564
0.356813
-0.00100214
0.327009
0.299831
-0.0488818
1.29929
0.0500355
-0.0492361
1.31344
-0.0494859
1.32668
-0.0496154
1.34068
-0.0496066
1.35549
-0.0494454
1.37118
-0.0491152
1.38784
-0.0485962
1.40556
-0.0478674
1.42444
-0.0469043
1.44459
-0.0456824
1.46615
-0.0441717
1.48929
-0.0423403
1.5142
-0.040128
1.55648
-0.0377661
1.44079
-0.0353015
1.33291
-0.0327707
1.23236
-0.0302134
1.1387
-0.0276599
1.05153
-0.0251394
0.970442
-0.0226735
0.895085
-0.0202805
0.825109
-0.0179797
0.760188
-0.0157778
0.700005
-0.0136867
0.644265
-0.0117092
0.592678
-0.00984911
0.544968
-0.00810364
0.500866
-0.00647193
0.46011
-0.0049476
0.42245
-0.0035318
0.387652
-0.00221374
0.355496
-0.000991374
0.325788
0.29884
-0.0548074
1.29795
0.0561515
-0.054982
1.31361
-0.055039
1.32674
-0.0549573
1.34059
-0.0547228
1.35525
-0.0543168
1.37078
-0.0537239
1.38725
-0.0529248
1.40476
-0.0518991
1.42341
-0.0506238
1.44331
-0.0490746
1.4646
-0.0472213
1.48744
-0.0450369
1.51202
-0.0424583
1.5539
-0.0397584
1.43809
-0.0369809
1.33014
-0.0341683
1.22955
-0.0313561
1.13589
-0.0285728
1.04874
-0.0258451
0.967714
-0.0231933
0.892433
-0.0206332
0.822549
-0.0181789
0.757733
-0.0158437
0.697669
-0.0136312
0.642053
-0.0115537
0.5906
-0.00961323
0.543027
-0.00781474
0.499067
-0.00615759
0.458453
-0.00464513
0.420935
-0.00326222
0.386271
-0.00200992
0.354242
-0.000874377
0.324651
0.297965
-0.0665928
1.29641
0.0681239
-0.0664861
1.31351
-0.0662173
1.32647
-0.0657866
1.34016
-0.0651787
1.35464
-0.0643838
1.36998
-0.0633826
1.38625
-0.0621575
1.40354
-0.0606872
1.42194
-0.0589535
1.44158
-0.056929
1.46258
-0.0545905
1.4851
-0.0519073
1.50933
-0.0488188
1.55081
-0.0456499
1.43492
-0.042445
1.32693
-0.0392452
1.22635
-0.0360849
1.13273
-0.0329933
1.04565
-0.0299941
0.964715
-0.0271052
0.889544
-0.0243414
0.819785
-0.0217069
0.755099
-0.0192027
0.695165
-0.0168262
0.639677
-0.0145695
0.588344
-0.0124226
0.540881
-0.010373
0.497018
-0.00841497
0.456495
-0.00653654
0.419059
-0.004742
0.384475
-0.00302333
0.352525
-0.00138619
0.323015
0.296579
-0.0763974
1.29468
0.0781262
-0.0757275
1.31284
-0.0748879
1.32563
-0.0738652
1.33914
-0.0726481
1.35343
-0.0712174
1.36855
-0.0695564
1.38459
-0.0676472
1.40163
-0.0654706
1.41976
-0.0630025
1.43911
-0.0602216
1.4598
-0.0571035
1.48198
-0.0536217
1.50585
-0.0497038
1.54689
-0.0457657
1.43098
-0.0418503
1.32301
-0.0379966
1.2225
-0.0342318
1.12897
-0.0305862
1.04201
-0.0270796
0.961208
-0.0237329
0.886197
-0.0205638
0.816616
-0.0175864
0.752122
-0.0148187
0.692397
-0.0122756
0.637134
-0.00996611
0.586034
-0.0079001
0.538815
-0.00608452
0.495202
-0.0045143
0.454925
-0.00318359
0.417726
-0.00206875
0.383362
-0.00115557
0.35161
-0.000414288
0.322273
0.296164
-0.0819649
1.29309
0.0835577
-0.0813981
1.31227
-0.0806757
1.32491
-0.0797686
1.33823
-0.0786572
1.35231
-0.077326
1.36722
-0.0757569
1.38302
-0.0739352
1.39981
-0.0718399
1.41767
-0.0694552
1.43672
-0.0667594
1.4571
-0.0637331
1.47896
-0.0603516
1.50247
-0.0565586
1.5431
-0.0527569
1.42718
-0.0489919
1.31925
-0.0452999
1.2188
-0.0417095
1.12538
-0.0382399
1.03854
-0.0349041
0.957873
-0.0317057
0.882999
-0.0286474
0.813557
-0.0257237
0.749198
-0.0229251
0.689599
-0.0202401
0.634449
-0.0176569
0.583451
-0.015164
0.536322
-0.0127509
0.492789
-0.0104099
0.452584
-0.00813654
0.415455
-0.00593834
0.381162
-0.00381221
0.349486
-0.00176849
0.32023
0.294395
-0.0924532
1.29083
0.0947142
-0.0912486
1.31106
-0.0898371
1.32349
-0.0882081
1.3366
-0.086349
1.35046
-0.0842412
1.36511
-0.0818707
1.38065
-0.0792179
1.39715
-0.076266
1.41472
-0.0729962
1.43345
-0.0693898
1.45349
-0.065424
1.47499
-0.0610835
1.49813
-0.056299
1.53832
-0.0515839
1.42247
-0.0469861
1.31465
-0.0425407
1.21436
-0.0382775
1.12111
-0.0342166
1.03448
-0.0303746
0.954031
-0.0267632
0.879388
-0.0233845
0.810179
-0.0202445
0.746058
-0.0173424
0.686697
-0.0146742
0.631781
-0.0122384
0.581015
-0.0100255
0.534109
-0.00802746
0.490791
-0.00623256
0.450789
-0.00463063
0.41385
-0.00319927
0.379733
-0.00193042
0.348215
-0.000803679
0.319102
0.293591
-0.105412
1.28831
0.107932
-0.103685
1.30934
-0.101723
1.32153
-0.0995203
1.3344
-0.0970627
1.348
-0.0943373
1.36239
-0.0913257
1.37764
-0.0880121
1.39384
-0.0843768
1.41108
-0.0804008
1.42948
-0.0760664
1.44916
-0.0713553
1.47028
-0.0662511
1.49303
-0.0606796
1.53275
-0.0552419
1.41703
-0.0499833
1.30939
-0.0449424
1.20932
-0.040149
1.11632
-0.0356196
1.02995
-0.0313701
0.949781
-0.0274063
0.875424
-0.0237315
0.806504
-0.0203473
0.742674
-0.0172485
0.683598
-0.014431
0.628964
-0.0118883
0.578473
-0.00961028
0.531832
-0.00758609
0.488766
-0.00580129
0.449004
-0.0042361
0.412287
-0.00287771
0.378372
-0.00169664
0.347036
-0.000674843
0.318082
0.292915
-0.113957
1.2861
0.116157
-0.112232
1.30761
-0.110282
1.31958
-0.108088
1.33221
-0.105632
1.34554
-0.102899
1.35965
-0.0998722
1.37461
-0.096534
1.3905
-0.0928675
1.40741
-0.0888554
1.42547
-0.0844793
1.44478
-0.0797215
1.46552
-0.0745671
1.48787
-0.0689482
1.52713
-0.0634686
1.41155
-0.0581809
1.30411
-0.053121
1.20426
-0.0483157
1.11152
-0.0437815
1.02541
-0.0395219
0.945522
-0.035534
0.871436
-0.0318073
0.802777
-0.0283198
0.739187
-0.0250502
0.680328
-0.0219731
0.625887
-0.0190608
0.57556
-0.0162902
0.529061
-0.0136407
0.486117
-0.011096
0.44646
-0.00865003
0.409839
-0.00629024
0.376015
-0.0040276
0.344771
-0.00186121
0.315914
0.291053
-0.119267
1.28353
0.121836
-0.117108
1.30545
-0.114702
1.31718
-0.112032
1.32954
-0.109082
1.34259
-0.105833
1.3564
-0.102268
1.37105
-0.0983707
1.3866
-0.0941201
1.40316
-0.0894973
1.42084
-0.0844839
1.43977
-0.0790606
1.4601
-0.073208
1.48202
-0.0668431
1.52076
-0.0606508
1.40536
-0.0546784
1.29813
-0.0489653
1.19855
-0.0435424
1.10609
-0.0384341
1.0203
-0.0336554
0.940743
-0.0292159
0.866997