/*--------------------------------*- C++ -*----------------------------------*\
| =========                 |                                                 |
| \\      /  F ield         | OpenFOAM: The Open Source CFD Toolbox           |
|  \\    /   O peration     | Version:  2.3.0                                 |
|   \\  /    A nd           | Web:      www.OpenFOAM.org                      |
|    \\/     M anipulation  |                                                 |
\*---------------------------------------------------------------------------*/
FoamFile
{
    version     2.0;
    format      ascii;
    class       volVectorField;
    location    "0";
    object      U;
}
// * * * * * * * * * * * * * * * * * * * * * * * * * * * * * * * * * * * * * //

dimensions      [0 1 -1 0 0 0 0];

internalField   nonuniform List<vector> 
14415
(
(103.668 -1.72782e-19 -9.71727)
(100.348 1.23738e-21 -8.46706)
(100.232 -1.3859e-19 -9.1967)
(100.165 -1.67841e-19 -9.84317)
(100.111 -1.665e-19 -10.4856)
(100.06 6.41021e-20 -11.1586)
(100.005 -1.3202e-19 -11.881)
(99.9461 2.99637e-19 -12.6657)
(99.8826 -1.67985e-19 -13.5245)
(99.8145 1.6843e-19 -14.4698)
(99.7422 2.30852e-19 -15.516)
(99.6667 1.19533e-19 -16.6802)
(99.5896 -1.12539e-19 -17.9834)
(99.5153 0 -19.4603)
(99.4503 0 -21.0685)
(99.4004 8.63377e-20 -22.7238)
(99.3706 -8.65557e-20 -24.4206)
(99.3645 2.2783e-20 -26.1518)
(99.3848 6.52404e-20 -27.9096)
(99.4339 9.93134e-21 -29.686)
(99.5138 -4.39775e-20 -31.4726)
(99.6258 3.59015e-20 -33.2607)
(99.7706 5.23329e-20 -35.042)
(99.9485 7.02393e-21 -36.8077)
(100.159 -2.24983e-20 -38.5496)
(100.401 0 -40.2597)
(100.674 -2.28854e-20 -41.9304)
(100.976 -1.35223e-20 -43.5545)
(101.307 -1.33327e-20 -45.1251)
(101.663 -1.36068e-21 -46.6363)
(102.047 -1.28036e-20 -48.0825)
(102.458 5.89698e-21 -49.459)
(102.9 6.38348e-21 -50.762)
(106.82 1.26418e-20 -53.9966)
(104.302 -2.62721e-19 -9.37857)
(101.237 3.89475e-20 -8.29668)
(101.129 0 -8.75816)
(101.059 -2.97482e-19 -9.32934)
(101.009 6.63922e-22 -9.96154)
(100.969 1.24976e-19 -10.6465)
(100.931 -1.47498e-19 -11.3883)
(100.892 1.09502e-19 -12.1952)
(100.853 8.57697e-20 -13.0771)
(100.811 1.44805e-19 -14.0456)
(100.768 8.58092e-20 -15.1143)
(100.724 -2.27702e-19 -16.2994)
(100.683 -2.59024e-19 -17.6207)
(100.648 0 -19.1112)
(100.626 -1.11937e-19 -20.7259)
(100.62 1.74593e-19 -22.3783)
(100.634 -6.51532e-20 -24.0628)
(100.671 -8.80202e-20 -25.7728)
(100.733 4.42109e-20 -27.5009)
(100.823 -4.43043e-20 -29.2399)
(100.943 -5.31827e-20 -30.9822)
(101.092 -3.02673e-20 -32.7202)
(101.272 2.24414e-20 -34.4463)
(101.482 0 -36.1533)
(101.721 -5.99979e-21 -37.8339)
(101.988 -5.30162e-21 -39.4816)
(102.282 0 -41.09)
(102.6 -1.99286e-21 -42.6531)
(102.941 -1.74184e-21 -44.1656)
(103.302 0 -45.6225)
(103.682 -5.09347e-23 -47.0192)
(104.078 0 -48.3509)
(104.491 0 -49.6127)
(108.997 6.21528e-21 -53.0709)
(105.128 -1.77386e-19 -9.15376)
(101.819 0 -8.20182)
(101.804 8.6112e-20 -8.67362)
(101.784 -2.05059e-19 -9.21442)
(101.767 -8.55868e-20 -9.81957)
(101.755 2.60158e-19 -10.4853)
(101.747 -1.15579e-19 -11.213)
(101.739 -3.01015e-20 -12.0078)
(101.733 1.41633e-19 -12.8779)
(101.728 5.41369e-20 -13.8336)
(101.723 5.25729e-20 -14.8878)
(101.722 -1.38807e-19 -16.0561)
(101.725 -1.36934e-19 -17.3575)
(101.739 -8.76328e-20 -18.8241)
(101.768 -1.10743e-19 -20.4106)
(101.811 -2.15257e-20 -22.0321)
(101.873 -8.85682e-20 -23.6831)
(101.957 0 -25.3567)
(102.064 0 -27.0459)
(102.197 -4.48329e-20 -28.7434)
(102.356 2.24176e-20 -30.4417)
(102.543 -2.26184e-20 -32.1334)
(102.757 2.91256e-20 -33.8113)
(102.999 5.81694e-21 -35.468)
(103.267 6.39538e-21 -37.0969)
(103.56 1.13962e-20 -38.6914)
(103.876 -1.14437e-20 -40.2457)
(104.213 -6.82564e-21 -41.7542)
(104.569 -2.8907e-21 -43.2122)
(104.94 -6.96772e-21 -44.6157)
(105.324 1.17283e-20 -45.9611)
(105.716 6.62413e-22 -47.2452)
(106.115 0 -48.4653)
(111.254 0 -52.0789)
(106.178 1.129e-19 -8.9517)
(102.408 -8.74912e-20 -8.02024)
(102.44 -2.3058e-20 -8.51327)
(102.464 -1.09104e-19 -9.05214)
(102.485 -2.81503e-19 -9.6453)
(102.507 1.40437e-19 -10.2968)
(102.53 -3.47343e-20 -11.0103)
(102.556 -3.53987e-20 -11.7914)
(102.585 1.8897e-19 -12.6474)
(102.616 -3.81422e-20 -13.5879)
(102.651 4.97165e-23 -14.625)
(102.693 4.70399e-20 -15.7736)
(102.742 -2.60834e-22 -17.0521)
(102.806 -1.31652e-19 -18.4911)
(102.887 0 -20.0455)
(102.982 -8.90612e-20 -21.6322)
(103.094 6.28569e-20 -23.2453)
(103.226 3.41796e-20 -24.8783)
(103.381 1.58773e-20 -26.5239)
(103.559 1.46156e-20 -28.1751)
(103.761 1.35322e-20 -29.8247)
(103.989 -2.26578e-20 -31.4652)
(104.242 0 -33.0897)
(104.519 -4.84082e-21 -34.6912)
(104.819 -1.15849e-20 -36.2633)
(105.142 1.53129e-20 -37.7999)
(105.484 -1.16558e-20 -39.2957)
(105.843 0 -40.7457)
(106.218 0 -42.1462)
(106.605 -5.91099e-21 -43.4943)
(107 9.47808e-21 -44.7887)
(107.401 8.06393e-22 -46.0288)
(107.803 3.18835e-21 -47.2151)
(113.574 0 -50.9512)
(107.249 9.09847e-20 -8.88725)
(102.99 -1.94374e-19 -7.79365)
(103.056 -1.05639e-19 -8.28271)
(103.116 -1.78671e-20 -8.81944)
(103.173 -1.91267e-19 -9.40693)
(103.229 -7.6e-21 -10.0498)
(103.286 -6.48327e-21 -10.7533)
(103.346 0 -11.5233)
(103.409 8.82003e-20 -12.3674)
(103.477 4.79572e-20 -13.2949)
(103.552 8.82348e-20 -14.3174)
(103.636 4.37265e-20 -15.4492)
(103.732 0 -16.708)
(103.845 0 -18.1233)
(103.979 0 -19.65)
(104.125 0 -21.2063)
(104.289 4.50341e-20 -22.7865)
(104.471 -6.02238e-21 -24.3836)
(104.674 -4.22744e-24 -25.9908)
(104.899 -1.41257e-20 -27.6008)
(105.146 -4.55661e-20 -29.2067)
(105.416 -2.29411e-20 -30.8012)
(105.709 6.14389e-21 -32.3775)
(106.023 -4.74856e-21 -33.929)
(106.358 4.17886e-21 -35.4496)
(106.712 1.49463e-23 -36.9335)
(107.082 -1.04088e-23 -38.3755)
(107.466 2.6616e-21 -39.7709)
(107.862 0 -41.1157)
(108.267 -2.94426e-21 -42.4062)
(108.679 1.41525e-21 -43.6394)
(109.093 -1.96644e-21 -44.8125)
(109.509 2.81112e-23 -45.9231)
(115.893 2.27886e-22 -49.7174)
(108.294 9.95848e-20 -8.63915)
(103.557 9.89748e-20 -7.51602)
(103.651 1.41523e-19 -8.01669)
(103.742 0 -8.55419)
(103.831 0 -9.13672)
(103.919 -3.33966e-21 -9.77084)
(104.01 -2.23249e-21 -10.4628)
(104.104 -4.60769e-20 -11.2192)
(104.204 -4.48292e-20 -12.0477)
(104.31 0 -12.9576)
(104.425 0 -13.9601)
(104.553 0 -15.0689)
(104.696 0 -16.301)
(104.861 0 -17.6847)
(105.048 0 -19.1748)
(105.249 2.25032e-20 -20.6917)
(105.466 0 -22.2295)
(105.701 -4.53757e-20 -23.7812)
(105.955 0 -25.3402)
(106.229 -1.27234e-20 -26.8992)
(106.523 -3.47807e-20 -28.4514)
(106.839 9.59404e-22 -29.9898)
(107.174 1.11599e-21 -31.5078)
(107.528 2.33456e-24 -32.9992)
(107.9 3.67876e-21 -34.458)
(108.288 2.63009e-21 -35.879)
(108.689 -2.71556e-21 -37.2574)
(109.101 6.50747e-22 -38.589)
(109.521 -1.84896e-21 -39.8706)
(109.946 -2.98587e-21 -41.0996)
(110.372 -1.86772e-21 -42.2745)
(110.798 -2.25101e-21 -43.3942)
(111.22 -4.52183e-21 -44.4585)
(118.15 2.12337e-22 -48.2717)
(109.312 -1.15947e-20 -8.40301)
(104.111 0 -7.21817)
(104.228 9.05195e-20 -7.71285)
(104.345 9.13042e-20 -8.24684)
(104.463 5.606e-20 -8.82434)
(104.583 -2.2194e-20 -9.451)
(104.707 0 -10.133)
(104.835 0 -10.8773)
(104.97 0 -11.6914)
(105.114 -2.23235e-20 -12.5847)
(105.271 6.27816e-20 -13.5679)
(105.442 3.87949e-20 -14.6543)
(105.633 0 -15.8601)
(105.85 0 -17.2124)
(106.092 0 -18.6661)
(106.348 3.87641e-20 -20.1437)
(106.619 3.58958e-21 -21.6388)
(106.907 -2.28788e-20 -23.1448)
(107.213 -1.29456e-20 -24.6548)
(107.538 -2.37533e-20 -26.1619)
(107.881 7.43298e-22 -27.6593)
(108.243 1.16099e-20 -29.1403)
(108.622 -8.72186e-21 -30.5985)
(109.018 -3.93296e-21 -32.0279)
(109.428 -9.82149e-21 -33.423)
(109.85 -9.52573e-23 -34.7788)
(110.283 -2.55505e-21 -36.0908)
(110.724 2.97665e-21 -37.3555)
(111.17 0 -38.57)
(111.618 0 -39.7324)
(112.065 0 -40.8415)
(112.509 0 -41.8968)
(112.946 -1.51996e-21 -42.8982)
(120.37 -1.91749e-22 -46.6747)
(110.286 -1.87668e-19 -8.10159)
(104.644 -8.64453e-20 -6.88389)
(104.783 0 -7.3755)
(104.926 0 -7.90428)
(105.072 -3.40419e-20 -8.47493)
(105.222 -2.19379e-20 -9.09279)
(105.377 7.9379e-20 -9.76382)
(105.539 -3.91637e-22 -10.4947)
(105.71 -8.19809e-20 -11.2932)
(105.892 -9.98435e-20 -12.1681)
(106.089 2.29159e-20 -13.1301)
(106.305 3.62442e-20 -14.1918)
(106.544 0 -15.3688)
(106.814 -2.8255e-21 -16.6868)
(107.112 -2.83326e-21 -18.1012)
(107.423 0 -19.5362)
(107.749 4.02711e-21 -20.9858)
(108.091 1.15698e-20 -22.443)
(108.451 1.35713e-20 -23.9013)
(108.827 1.18075e-20 -25.3538)
(109.219 -1.02205e-20 -26.7939)
(109.628 8.02738e-22 -28.2151)
(110.052 5.36536e-21 -29.6115)
(110.489 -7.48988e-21 -30.9772)
(110.938 -9.51782e-21 -32.307)
(111.395 2.90967e-21 -33.5963)
(111.86 4.99994e-21 -34.8409)
(112.329 2.29589e-21 -36.0375)
(112.799 1.86398e-22 -37.1833)
(113.269 0 -38.2763)
(113.735 -1.87939e-22 -39.3151)
(114.194 -9.43476e-23 -40.2987)
(114.644 -4.8208e-22 -41.2264)
(122.472 -7.19229e-23 -44.9024)
(111.215 0 -7.74389)
(105.152 -6.28632e-20 -6.52179)
(105.314 -1.77178e-20 -7.00524)
(105.482 0 -7.52601)
(105.655 1.9505e-20 -8.08753)
(105.833 0 -8.69453)
(106.019 -2.80519e-21 -9.35256)
(106.214 -3.76799e-20 -10.068)
(106.42 -7.6234e-20 -10.8483)
(106.641 -3.56287e-20 -11.702)
(106.879 2.25317e-20 -12.6393)
(107.139 -2.25807e-20 -13.6721)
(107.426 3.2427e-20 -14.8153)
(107.75 4.99165e-21 -16.0931)
(108.104 1.99038e-20 -17.4611)
(108.471 1.14168e-20 -18.8464)
(108.853 1.43958e-21 -20.2425)
(109.25 1.00472e-20 -21.6427)
(109.663 1.45018e-21 -23.0405)
(110.091 7.27896e-22 -24.4293)
(110.534 5.80882e-21 -25.8027)
(110.99 7.33795e-22 -27.1548)
(111.459 0 -28.4798)
(111.938 -6.45334e-21 -29.7725)
(112.424 -5.57764e-21 -31.0283)
(112.917 7.86764e-21 -32.2428)
(113.413 1.12388e-21 -33.4127)
(113.909 1.88248e-22 -34.5351)
(114.404 2.51054e-22 -35.6084)
(114.895 -2.236e-21 -36.6315)
(115.378 -2.52067e-21 -37.6042)
(115.852 -8.55487e-22 -38.5267)
(116.314 0 -39.3991)
(124.438 1.02816e-22 -42.9251)
(112.055 8.60476e-20 -7.43437)
(105.635 -2.23095e-20 -6.15371)
(105.821 2.23456e-20 -6.63065)
(106.013 0 -7.14328)
(106.212 5.99739e-20 -7.69512)
(106.418 2.89428e-20 -8.29065)
(106.634 3.60844e-20 -8.93511)
(106.861 0 -9.63458)
(107.102 0 -10.3961)
(107.361 -4.51035e-20 -11.2278)
(107.64 2.26962e-20 -12.1392)
(107.944 -2.27547e-20 -13.142)
(108.28 7.5962e-20 -14.2498)
(108.656 5.82419e-21 -15.4854)
(109.066 2.29715e-20 -16.805)
(109.49 -1.14067e-20 -18.1381)
(109.928 1.18703e-20 -19.4783)
(110.38 3.34794e-20 -20.819)
(110.846 1.00038e-20 -22.1537)
(111.325 0 -23.4761)
(111.818 1.41547e-20 -24.7803)
(112.321 1.91013e-20 -26.0605)
(112.835 0 -27.3116)
(113.355 0 -28.529)
(113.881 -5.02356e-21 -29.7087)
(114.408 -7.20154e-21 -30.8472)
(114.936 -3.01794e-21 -31.9417)
(115.46 3.00992e-21 -32.9896)
(115.978 -9.76356e-22 -33.9888)
(116.488 -1.86468e-21 -34.9378)
(116.988 -2.2756e-23 -35.8353)
(117.475 1.86507e-22 -36.6811)
(117.948 0 -37.4755)
(126.25 -2.4957e-22 -40.7843)
(112.817 8.27842e-20 -6.85152)
(106.095 3.44059e-20 -5.69858)
(106.301 0 -6.16836)
(106.516 1.05692e-20 -6.67019)
(106.74 -2.22799e-20 -7.2089)
(106.973 -7.78804e-20 -7.78913)
(107.218 7.76431e-20 -8.41592)
(107.477 6.37911e-20 -9.09503)
(107.753 3.09972e-20 -9.83308)
(108.048 -4.5409e-20 -10.6378)
(108.367 0 -11.5182)
(108.715 4.54534e-20 -12.485)
(109.099 4.57941e-20 -13.5511)
(109.529 0 -14.7375)
(109.994 0 -16.0015)
(110.473 -2.31518e-20 -17.2753)
(110.966 0 -18.5526)
(111.472 9.70656e-21 -19.827)
(111.99 -1.45131e-20 -21.0922)
(112.521 0 -22.3421)
(113.061 7.24153e-21 -23.5709)
(113.61 1.82667e-20 -24.7732)
(114.166 0 -25.9442)
(114.727 -4.93049e-21 -27.0797)
(115.289 -4.17046e-21 -28.176)
(115.851 -1.55934e-20 -29.2306)
(116.409 3.19312e-21 -30.2416)
(116.962 3.05192e-21 -31.2079)
(117.505 -1.77197e-21 -32.1291)
(118.037 -2.93849e-21 -33.0055)
(118.555 7.53109e-22 -33.8378)
(119.059 3.6923e-21 -34.6267)
(119.545 1.19305e-22 -35.373)
(127.922 -2.27435e-22 -38.4523)
(113.552 3.4812e-20 -6.56552)
(106.535 4.41992e-20 -5.32991)
(106.764 -3.37685e-20 -5.78284)
(107.002 4.4912e-20 -6.27275)
(107.25 -4.46817e-20 -6.79971)
(107.51 3.30699e-20 -7.36678)
(107.784 7.73725e-20 -7.97838)
(108.074 -9.02459e-20 -8.63977)
(108.383 0 -9.35719)
(108.715 3.06213e-20 -10.1379)
(109.074 5.91469e-20 -10.9902)
(109.466 1.02982e-19 -11.9243)
(109.897 -6.4198e-20 -12.9519)
(110.379 0 -14.0926)
(110.899 5.85592e-20 -15.3043)
(111.433 -1.37637e-22 -16.522)
(111.98 -1.08595e-20 -17.7394)
(112.538 3.64472e-20 -18.9503)
(113.108 -3.29409e-20 -20.1489)
(113.687 0 -21.3293)
(114.273 0 -22.486)
(114.865 -7.3042e-21 -23.6141)
(115.461 5.38933e-21 -24.7089)
(116.057 0 -25.7664)
(116.651 -5.30877e-21 -26.783)
(117.241 1.36701e-21 -27.7558)
(117.825 1.22011e-20 -28.6824)
(118.399 0 -29.5613)
(118.961 0 -30.3915)
(119.509 -9.26767e-21 -31.1727)
(120.041 1.33055e-21 -31.905)
(120.555 1.79983e-21 -32.5892)
(121.05 -6.78605e-22 -33.2264)
(129.362 1.51008e-21 -36.0025)
(114.109 9.51701e-20 -6.01259)
(106.94 4.47871e-20 -4.83499)
(107.192 0 -5.2846)
(107.453 -3.08107e-20 -5.76187)
(107.725 -2.10033e-19 -6.27203)
(108.01 -1.2e-19 -6.8193)
(108.311 -2.91148e-20 -7.40807)
(108.63 -6.19008e-20 -8.04332)
(108.971 -6.2819e-20 -8.7308)
(109.338 0 -9.47715)
(109.735 2.65474e-20 -10.2901)
(110.169 -6.62498e-20 -11.1787)
(110.646 -1.16598e-19 -12.1536)
(111.177 6.93596e-20 -13.2325)
(111.75 1.39096e-19 -14.3746)
(112.336 0 -15.5184)
(112.934 0 -16.658)
(113.542 4.71457e-20 -17.7875)
(114.159 -5.50463e-20 -18.9013)
(114.783 -7.10888e-21 -19.9943)
(115.412 0 -21.0616)
(116.043 0 -22.0991)
(116.674 1.20823e-20 -23.1031)
(117.303 -1.65862e-20 -24.0704)
(117.925 -3.86668e-21 -24.9984)
(118.54 1.22639e-20 -25.8852)
(119.143 9.02193e-21 -26.7292)
(119.733 -5.43201e-23 -27.5296)
(120.307 -1.87917e-21 -28.2858)
(120.863 -1.24653e-20 -28.9979)
(121.401 3.13748e-21 -29.6665)
(121.917 -7.34191e-22 -30.2925)
(122.413 -3.58369e-22 -30.8773)
(130.488 -1.53147e-21 -33.3336)
(114.537 2.82111e-22 -5.42617)
(107.333 -2.88524e-20 -4.35756)
(107.601 3.09092e-22 -4.79084)
(107.882 2.78618e-20 -5.25209)
(108.176 -2.08023e-19 -5.74395)
(108.485 -2.07688e-19 -6.27006)
(108.812 -2.67372e-20 -6.83453)
(109.16 -5.19773e-20 -7.44197)
(109.532 -1.16392e-19 -8.09769)
(109.932 -9.12183e-20 -8.80773)
(110.366 0 -9.57908)
(110.84 -6.94053e-20 -10.4198)
(111.361 2.14076e-20 -11.3395)
(111.941 -1.99829e-20 -12.3539)
(112.564 1.67697e-19 -13.4237)
(113.2 8.71798e-21 -14.4911)
(113.846 7.96008e-21 -15.5504)
(114.501 0 -16.596)
(115.163 -1.729e-22 -17.623)
(115.829 5.84943e-21 -18.6266)
(116.497 5.16508e-21 -19.6024)
(117.165 4.50901e-21 -20.547)
(117.829 -2.03621e-20 -21.4571)
(118.487 -2.77018e-20 -22.3306)
(119.137 1.80814e-23 -23.1656)
(119.774 1.22764e-20 -23.9611)
(120.397 4.97494e-23 -24.7165)
(121.004 -4.92784e-21 -25.4318)
(121.592 0 -26.1072)
(122.16 -1.25699e-20 -26.7433)
(122.706 6.77818e-21 -27.3412)
(123.23 -1.82886e-22 -27.9019)
(123.73 4.15899e-23 -28.4263)
(131.456 -1.40911e-23 -30.5496)
(114.89 -9.5672e-20 -4.90885)
(107.703 0 -3.89004)
(107.991 0 -4.30817)
(108.291 0 -4.75381)
(108.606 -2.11937e-22 -5.22822)
(108.939 -1.81112e-19 -5.73429)
(109.291 0 -6.2757)
(109.666 0 -6.85667)
(110.068 2.44586e-20 -7.48203)
(110.501 -5.02446e-22 -8.15726)
(110.971 -2.27021e-20 -8.88861)
(111.484 0 -9.68326)
(112.048 -2.10436e-20 -10.5495)
(112.673 -1.13012e-19 -11.5015)
(113.345 2.48677e-22 -12.5011)
(114.028 -7.67124e-20 -13.4945)
(114.72 -4.74e-20 -14.4759)
(115.418 8.78725e-23 -15.4405)
(116.12 7.50107e-20 -16.3835)
(116.824 1.22949e-20 -17.3007)
(117.527 0 -18.1883)
(118.225 2.43057e-20 -19.043)
(118.917 -2.4509e-20 -19.8622)
(119.599 -3.29565e-20 -20.6437)
(120.268 3.43933e-21 -21.386)
(120.922 2.48681e-20 -22.0882)
(121.559 2.50515e-21 -22.7499)
(122.176 -1.67313e-20 -23.3712)
(122.771 0 -23.9528)
(123.343 -6.34767e-21 -24.4954)
(123.892 1.79838e-23 -25.0004)
(124.415 0 -25.4691)
(124.914 2.89073e-21 -25.9031)
(132.153 6.68033e-21 -27.6716)
(115.083 6.99483e-20 -4.35711)
(108.053 0 -3.38955)
(108.357 0 -3.79641)
(108.675 0 -4.2239)
(109.009 9.06258e-20 -4.67582)
(109.362 -2.43591e-20 -5.15569)
(109.737 -2.34754e-20 -5.66712)
(110.138 0 -6.21402)
(110.567 2.24927e-20 -6.80071)
(111.03 1.35431e-19 -7.43201)
(111.533 4.17499e-20 -8.11336)
(112.081 -7.27862e-20 -8.85089)
(112.683 -1.90323e-20 -9.6516)
(113.351 5.79452e-20 -10.5276)
(114.065 -1.1089e-19 -11.443)
(114.79 -9.48445e-20 -12.3481)
(115.521 -3.34854e-20 -13.2376)
(116.256 2.60059e-20 -14.1074)
(116.992 1.1834e-20 -14.9533)
(117.727 4.84554e-20 -15.7719)
(118.457 2.43689e-20 -16.56)
(119.179 4.04892e-20 -17.3154)
(119.891 -7.59721e-21 -18.0361)
(120.589 -2.81587e-20 -18.7207)
(121.27 -1.53565e-20 -19.3684)
(121.933 1.255e-20 -19.9787)
(122.575 1.25924e-20 -20.5515)
(123.193 -2.23388e-23 -21.0873)
(123.788 1.37674e-21 -21.5867)
(124.357 1.07926e-21 -22.0508)
(124.9 -6.42632e-21 -22.4812)
(125.416 6.44196e-21 -22.8793)
(125.906 3.23922e-21 -23.2467)
(132.506 6.76597e-21 -24.6673)
(115.096 -2.2999e-20 -3.66581)
(108.384 -2.27339e-20 -2.84624)
(108.699 0 -3.23564)
(109.03 -6.83843e-20 -3.64175)
(109.381 -1.81896e-22 -4.06836)
(109.752 4.88176e-20 -4.51907)
(110.148 1.53981e-22 -4.99735)
(110.571 1.99658e-20 -5.5068)
(111.026 0 -6.05124)
(111.517 9.23785e-20 -6.63481)
(112.05 -9.27717e-20 -7.2621)
(112.631 -2.03407e-19 -7.93819)
(113.268 -1.25487e-19 -8.66877)
(113.973 1.73698e-19 -9.464)
(114.726 1.35879e-20 -10.2902)
(115.488 1.07789e-19 -11.1022)
(116.253 0 -11.8957)
(117.019 3.81751e-20 -12.6667)
(117.784 -9.04935e-21 -13.412)
(118.543 9.77554e-20 -14.1287)
(119.294 2.45952e-20 -14.8145)
(120.034 2.7735e-20 -15.4677)
(120.76 2.5711e-21 -16.0871)
(121.468 -2.50122e-20 -16.6723)
(122.158 -1.08385e-20 -17.2231)
(122.825 2.79685e-21 -17.74)
(123.469 1.37936e-20 -18.2237)
(124.087 9.13085e-24 -18.6753)
(124.679 0 -19.096)
(125.243 0 -19.4871)
(125.78 0 -19.8498)
(126.289 6.50524e-21 -20.1855)
(126.77 0 -20.4954)
(132.626 3.41643e-21 -21.5909)
(115.024 -1.06548e-19 -3.10302)
(108.709 1.0148e-19 -2.36322)
(109.032 -1.69039e-22 -2.73092)
(109.375 -2.08954e-20 -3.11335)
(109.739 -9.12206e-20 -3.51338)
(110.127 0 -3.93408)
(110.542 1.96283e-20 -4.37855)
(110.986 3.79908e-20 -4.84993)
(111.464 -7.94927e-23 -5.35145)
(111.981 -1.76597e-20 -5.88657)
(112.541 3.04424e-23 -6.45901)
(113.151 -9.37517e-20 -7.07277)
(113.82 -9.42616e-20 -7.73225)
(114.558 9.48278e-20 -8.44565)
(115.345 0 -9.18175)
(116.137 1.0795e-19 -9.9001)
(116.93 1.09269e-20 -10.5969)
(117.721 9.73102e-20 -11.2691)
(118.506 0 -11.9141)
(119.283 4.92668e-20 -12.5298)
(120.048 0 -13.1146)
(120.797 -1.85621e-20 -13.6675)
(121.529 5.6899e-21 -14.1877)
(122.24 -2.5231e-20 -14.675)
(122.928 0 -15.1294)
(123.591 0 -15.5515)
(124.228 0 -15.9419)
(124.837 -1.28836e-20 -16.3018)
(125.418 0 -16.6324)
(125.97 0 -16.9355)
(126.492 0 -17.2127)
(126.986 0 -17.4658)
(127.45 -3.24908e-22 -17.6965)
(132.468 -1.93702e-22 -18.4826)
(114.823 9.95113e-21 -2.48665)
(109.008 9.07863e-20 -1.84346)
(109.335 0 -2.1824)
(109.685 1.92098e-19 -2.53227)
(110.06 8.4929e-23 -2.89667)
(110.462 -1.77606e-20 -3.27841)
(110.892 8.37066e-20 -3.6801)
(111.353 -8.22627e-21 -4.10429)
(111.851 -3.91958e-23 -4.55357)
(112.388 -1.86738e-19 -5.03061)
(112.97 7.96613e-20 -5.53822)
(113.604 8.11584e-20 -6.07933)
(114.298 -6.1605e-21 -6.65702)
(115.063 9.55249e-20 -7.27756)
(115.874 -4.97107e-21 -7.91278)
(116.688 -1.01348e-19 -8.52748)
(117.5 -4.87304e-20 -9.11859)
(118.306 4.55919e-20 -9.68374)
(119.104 -5.98155e-21 -10.2211)
(119.889 -2.5906e-21 -10.7293)
(120.658 2.50043e-20 -11.2077)
(121.409 -2.68314e-20 -11.6559)
(122.138 -6.97833e-23 -12.0742)
(122.844 -2.43694e-20 -12.4633)
(123.524 -7.45522e-22 -12.824)
(124.177 -2.2051e-23 -13.1576)
(124.801 3.02596e-22 -13.4656)
(125.396 0 -13.7492)
(125.962 6.55691e-21 -14.0101)
(126.497 -1.2073e-22 -14.2497)
(127.004 0 -14.4693)
(127.48 6.60627e-21 -14.6703)
(127.928 -8.6305e-23 -14.8539)
(132.097 -1.37066e-22 -15.395)
(114.544 7.76308e-20 -1.87517)
(109.282 -8.94406e-21 -1.35606)
(109.613 0 -1.662)
(109.971 9.16866e-20 -1.98097)
(110.355 9.19818e-20 -2.31363)
(110.768 -8.1866e-21 -2.66144)
(111.211 8.47217e-20 -3.02617)
(111.687 7.67255e-21 -3.40961)
(112.2 9.34929e-20 -3.81365)
(112.754 -9.38553e-20 -4.24022)
(113.355 -8.76579e-20 -4.69125)
(114.007 9.48351e-20 -5.16873)
(114.72 0 -5.67456)
(115.503 9.60255e-20 -6.21326)
(116.331 0 -6.7597)
(117.159 -9.73569e-20 -7.28324)
(117.981 -4.90116e-20 -7.78154)
(118.794 -5.32977e-20 -8.25297)
(119.595 4.61044e-20 -8.69641)
(120.379 -5.00375e-20 -9.11116)
(121.144 2.80895e-20 -9.49697)
(121.887 2.70137e-21 -9.85399)
(122.606 -2.5481e-20 -10.1827)
(123.298 -2.56035e-20 -10.4839)
(123.963 -1.28829e-20 -10.7587)
(124.599 -1.46517e-20 -11.0083)
(125.204 -1.56468e-21 -11.2342)
(125.78 -1.26454e-21 -11.4379)
(126.325 5.40342e-21 -11.621)
(126.839 -8.2346e-22 -11.7852)
(127.323 -1.4014e-22 -11.9321)
(127.778 7.16664e-21 -12.0632)
(128.204 0 -12.1801)
(131.591 3.44106e-21 -12.5199)
(114.246 1.98925e-19 -1.29344)
(109.52 0 -0.875324)
(109.857 -8.40694e-20 -1.14337)
(110.221 -8.45615e-20 -1.42399)
(110.613 -7.24856e-21 -1.71715)
(111.033 -7.0233e-21 -2.02345)
(111.485 -6.66131e-21 -2.34384)
(111.971 8.7085e-20 -2.67943)
(112.494 9.38394e-20 -3.03141)
(113.059 0 -3.40096)
(113.671 -1.89637e-19 -3.78926)
(114.334 -4.82161e-21 -4.19735)
(115.057 -4.51262e-21 -4.62618)
(115.85 3.90969e-21 -5.07866)
(116.685 1.43111e-22 -5.53289)
(117.516 -9.81191e-20 -5.96321)
(118.338 2.71258e-21 -6.36802)
(119.148 -9.92843e-20 -6.7464)
(119.942 9.99427e-20 -7.0979)
(120.717 -5.02731e-20 -7.42253)
(121.469 1.1979e-21 -7.72071)
(122.197 1.01399e-21 -7.99322)
(122.899 -2.55946e-20 -8.24112)
(123.572 4.89949e-22 -8.46567)
(124.215 -2.55251e-20 -8.66829)
(124.828 -1.30022e-20 -8.85047)
(125.411 6.44735e-23 -9.01374)
(125.962 1.31081e-20 -9.15963)
(126.483 -6.59447e-21 -9.28966)
(126.973 0 -9.40531)
(127.433 1.20734e-22 -9.50793)
(127.865 2.8445e-22 -9.59883)
(128.268 2.47396e-22 -9.67924)
(130.997 3.50677e-21 -9.88387)
(113.939 8.81761e-20 -0.713656)
(109.723 -7.04741e-21 -0.396085)
(110.068 -1.0579e-19 -0.633283)
(110.438 -1.0565e-19 -0.880949)
(110.836 8.63262e-20 -1.13943)
(111.263 9.30977e-20 -1.40904)
(111.722 9.34654e-20 -1.69022)
(112.215 9.37914e-20 -1.98349)
(112.746 0 -2.28944)
(113.318 -9.4753e-20 -2.60863)
(113.936 -1.95068e-19 -2.94152)
(114.606 9.14219e-20 -3.28842)
(115.334 3.89529e-21 -3.64939)
(116.13 -9.69214e-20 -4.02602)
(116.966 -3.23088e-21 -4.39942)
(117.794 -9.83509e-20 -4.74828)
(118.61 0 -5.07165)
(119.411 -4.98491e-20 -5.3692)
(120.193 5.19674e-20 -5.64101)
(120.953 1.62377e-21 -5.88754)
(121.688 0 -6.10963)
(122.397 -1.07252e-21 -6.30836)
(123.077 -9.58723e-22 -6.48507)
(123.727 0 -6.64124)
(124.347 -1.29846e-20 -6.77845)
(124.935 1.32686e-20 -6.89836)
(125.492 1.81849e-22 -7.0026)
(126.018 1.32742e-20 -7.09274)
(126.513 -1.31332e-20 -7.17032)
(126.978 -6.59649e-21 -7.23672)
(127.414 2.86539e-23 -7.29328)
(127.82 -3.34203e-21 -7.34121)
(128.199 3.35231e-21 -7.38154)
(130.388 1.22758e-23 -7.4857)
(113.661 -9.52564e-20 -0.148516)
(109.897 -3.09861e-21 0.0780114)
(110.247 -6.03028e-21 -0.127086)
(110.622 -5.84039e-21 -0.341707)
(111.025 -2.89304e-21 -0.565598)
(111.457 -2.76368e-21 -0.79864)
(111.92 9.11007e-20 -1.04082)
(112.417 9.41797e-20 -1.29221)
(112.952 9.22893e-20 -1.55287)
(113.527 -9.72483e-20 -1.82282)
(114.148 -9.55299e-20 -2.10193)
(114.819 9.60823e-20 -2.38986)
(115.546 -9.84785e-20 -2.68596)
(116.338 -9.73993e-20 -2.99067)
(117.167 9.95536e-20 -3.2881)
(117.986 9.75352e-20 -3.56109)
(118.79 -4.97801e-20 -3.8093)
(119.576 5.10935e-20 -4.03295)
(120.339 -4.95069e-20 -4.23261)
(121.079 8.17097e-22 -4.40919)
(121.792 0 -4.56387)
(122.476 -6.15625e-22 -4.698)
(123.13 -3.14948e-23 -4.8131)
(123.754 1.01156e-21 -4.91073)
(124.347 9.04741e-22 -4.99253)
(124.907 1.34956e-20 -5.0601)
(125.437 0 -5.115)
(125.935 -6.59769e-21 -5.15874)
(126.403 3.9848e-24 -5.19274)
(126.841 -6.64306e-21 -5.21836)
(127.251 -6.66945e-21 -5.23676)
(127.633 -6.6883e-21 -5.24908)
(127.988 3.35284e-21 -5.25638)
(129.723 3.40084e-21 -5.28859)
(113.412 -9.51077e-20 0.347437)
(110.037 -2.85725e-21 0.539912)
(110.393 8.98721e-20 0.369089)
(110.773 2.61397e-21 0.18884)
(111.179 -9.07019e-20 0.000676202)
(111.614 -9.36014e-20 -0.194697)
(112.079 0 -0.396868)
(112.578 9.23461e-20 -0.605513)
(113.113 9.28674e-20 -0.820291)
(113.688 0 -1.04077)
(114.307 -9.43357e-20 -1.26635)
(114.975 1.46696e-21 -1.49617)
(115.696 -9.57934e-20 -1.729)
(116.481 -9.66009e-20 -1.96431)
(117.299 9.75137e-20 -2.18914)
(118.103 9.82656e-20 -2.39037)
(118.89 -4.9347e-20 -2.56818)
(119.656 5.0594e-20 -2.72325)
(120.398 -5.04771e-20 -2.85656)
(121.114 2.54068e-20 -2.96936)
(121.802 0 -3.06313)
(122.46 2.56951e-20 -3.13948)
(123.087 -2.58301e-20 -3.2001)
(123.683 0 -3.24669)
(124.247 -1.0955e-22 -3.28094)
(124.78 -2.3309e-22 -3.30445)
(125.281 3.92228e-24 -3.31876)
(125.752 -1.31993e-20 -3.32527)
(126.193 6.50102e-21 -3.32529)
(126.606 0 -3.31997)
(126.99 -6.58194e-21 -3.31042)
(127.348 8.14697e-23 -3.29755)
(127.68 3.39228e-21 -3.28212)
(129.047 3.40972e-21 -3.26766)
(113.127 0 0.831626)
(110.145 2.6238e-21 1.00826)
(110.507 1.88262e-19 0.861923)
(110.89 -9.07687e-20 0.710117)
(111.299 -9.11648e-20 0.553017)
(111.735 -2.19865e-21 0.391044)
(112.201 -2.13674e-21 0.224688)
(112.699 0 0.0544878)
(113.233 9.33062e-20 -0.118928)
(113.806 9.21559e-20 -0.294779)
(114.42 -9.76966e-20 -0.47207)
(115.081 -1.41285e-21 -0.64952)
(115.794 -1.34884e-21 -0.825445)
(116.567 -1.96367e-19 -0.998491)
(117.37 -1.01984e-21 -1.15849)
(118.156 -5.05301e-20 -1.2959)
(118.923 -5.03717e-20 -1.41136)
(119.667 3.17511e-22 -1.50592)
(120.385 5.08965e-20 -1.58087)
(121.075 5.1107e-20 -1.63773)
(121.736 4.24825e-22 -1.67814)
(122.366 2.59045e-20 -1.70385)
(122.965 1.24834e-23 -1.71658)
(123.532 0 -1.71808)
(124.068 0 -1.70999)
(124.572 0 -1.69388)
(125.045 0 -1.67121)
(125.489 -1.31975e-20 -1.64329)
(125.903 0 -1.61131)
(126.29 0 -1.57636)
(126.649 0 -1.53928)
(126.983 3.33969e-21 -1.50087)
(127.293 3.34946e-21 -1.4619)
(128.359 -5.23963e-24 -1.41277)
(112.809 9.38411e-20 1.36737)
(110.233 9.27539e-20 1.48597)
(110.594 9.20215e-20 1.36371)
(110.979 -1.88593e-19 1.23942)
(111.388 -8.62261e-22 1.11246)
(111.823 -8.4004e-22 0.982972)
(112.287 -1.60338e-21 0.851446)
(112.783 -1.49828e-21 0.71855)
(113.313 -7.59754e-22 0.585125)
(113.879 9.57513e-20 0.452206)
(114.486 0 0.321076)
(115.138 9.68636e-20 0.193346)
(115.838 0 0.0710411)
(116.595 -9.76661e-20 -0.0438387)
(117.379 2.01931e-22 -0.143771)
(118.144 -4.97044e-20 -0.222603)
(118.887 -4.98706e-20 -0.281348)
(119.605 9.94338e-23 -0.321361)
(120.296 1.01428e-19 -0.344208)
(120.959 2.55323e-20 -0.351602)
(121.591 2.55972e-20 -0.345327)
(122.192 2.36299e-23 -0.32719)
(122.761 2.5866e-20 -0.298966)
(123.299 -1.29842e-20 -0.262351)
(123.806 0 -0.218937)
(124.282 -5.17065e-24 -0.170191)
(124.727 -6.60172e-24 -0.117437)
(125.144 -6.59208e-21 -0.0618577)
(125.533 6.61261e-21 -0.00449457)
(125.895 9.12348e-25 0.0537926)
(126.231 -1.12025e-25 0.112149)
(126.542 -4.92904e-25 0.169941)
(126.831 3.34201e-21 0.2267)
(127.652 9.1781e-25 0.298141)
(112.507 9.55864e-20 1.83968)
(110.298 9.37617e-20 1.93766)
(110.659 0 1.84485)
(111.042 4.71597e-23 1.74937)
(111.45 -4.07974e-22 1.65245)
(111.882 -9.45862e-20 1.55483)
(112.343 0 1.45724)
(112.834 2.76831e-22 1.36052)
(113.358 -1.90645e-19 1.26569)
(113.917 -1.0856e-22 1.17399)
(114.514 -1.04195e-22 1.08693)
(115.154 1.93961e-19 1.00637)
(115.839 0 0.934559)
(116.578 7.30534e-25 0.874035)
(117.339 6.94009e-25 0.829819)
(118.081 1.02774e-23 0.804889)
(118.798 1.00259e-23 0.797919)
(119.49 -5.03614e-20 0.807316)
(120.153 -3.33728e-23 0.831334)
(120.786 -2.54973e-20 0.868139)
(121.389 2.55614e-20 0.915874)
(121.96 -2.57168e-20 0.972716)
(122.5 -2.58345e-20 1.03692)
(123.009 -1.29684e-20 1.10683)
(123.487 0 1.18094)
(123.935 -5.65451e-23 1.25789)
(124.354 -1.32242e-20 1.33647)
(124.745 -4.73387e-23 1.4156)
(125.109 6.59971e-21 1.49439)
(125.447 0 1.57203)
(125.76 -6.64162e-23 1.64794)
(126.051 -2.43182e-24 1.7216)
(126.319 3.33767e-21 1.79249)
(126.946 3.34526e-21 1.87781)
(112.206 7.16237e-22 2.31778)
(110.337 5.31143e-22 2.39463)
(110.698 9.33396e-20 2.32432)
(111.079 9.33013e-20 2.25436)
(111.483 -9.42441e-20 2.18495)
(111.913 -9.45204e-20 2.11669)
(112.368 -6.33436e-23 2.05039)
(112.853 6.69082e-24 1.98701)
(113.369 -9.55243e-20 1.92774)
(113.918 2.30824e-23 1.87397)
(114.504 0 1.82737)
(115.13 9.69992e-20 1.78997)
(115.798 -1.01314e-23 1.76423)
(116.516 9.83345e-20 1.7531)
(117.254 0 1.75922)
(117.97 -4.97705e-20 1.78273)
(118.661 -5.00692e-20 1.82204)
(119.324 -5.03393e-20 1.87537)
(119.958 -5.06152e-20 1.94081)
(120.562 1.08648e-23 2.01648)
(121.135 1.84656e-23 2.10048)
(121.677 -5.13736e-20 2.19101)
(122.188 -2.57989e-20 2.28638)
(122.668 1.50047e-23 2.38503)
(123.118 0 2.48556)
(123.539 0 2.58674)
(123.931 -6.53471e-21 2.68748)
(124.297 1.76294e-23 2.78688)
(124.636 6.55619e-21 2.88417)
(124.951 0 2.97876)
(125.243 0 3.07008)
(125.513 0 3.15777)
(125.762 -4.64482e-24 3.24163)
(126.236 3.34867e-21 3.33665)
(111.918 -9.44652e-20 2.78473)
(110.357 0 2.84241)
(110.714 9.3394e-20 2.7965)
(111.092 9.37528e-20 2.75211)
(111.492 -9.40929e-20 2.70971)
(111.916 0 2.67003)
(112.365 0 2.63401)
(112.842 0 2.60274)
(113.348 0 2.57749)
(113.886 0 2.55979)
(114.459 -9.65472e-20 2.55144)
(115.068 9.72638e-20 2.55459)
(115.718 3.32566e-23 2.57179)
(116.414 -9.41626e-23 2.60632)
(117.127 9.89749e-20 2.65863)
(117.816 -2.77204e-23 2.72622)
(118.479 -4.99958e-20 2.8073)
(119.114 1.444e-22 2.89993)
(119.719 0 3.00216)
(120.293 5.08338e-20 3.11203)
(120.836 0 3.22769)
(121.349 -2.5645e-20 3.34738)
(121.83 -1.28785e-20 3.46948)
(122.282 1.29281e-20 3.59255)
(122.705 3.69157e-22 3.71532)
(123.099 3.24028e-22 3.83669)
(123.466 6.52794e-21 3.95574)
(123.807 0 4.07169)
(124.124 6.79819e-21 4.18394)
(124.417 1.92852e-22 4.29192)
(124.689 0 4.39536)
(124.939 0 4.49394)
(125.17 3.24711e-21 4.5874)
(125.528 -2.79628e-23 4.68755)
(111.644 -9.44698e-20 3.21834)
(110.353 -2.03952e-22 3.2793)
(110.707 9.33034e-20 3.25795)
(111.08 9.37901e-20 3.23816)
(111.475 -9.42732e-20 3.22133)
(111.892 1.07107e-22 3.20857)
(112.334 9.53533e-20 3.20096)
(112.802 2.07439e-22 3.19973)
(113.298 0 3.20625)