# vtk DataFile Version 2.0
track0
ASCII
DATASET POLYDATA
POINTS 8204 float
0.0624513 -0.666667 -0.0389216
0.0634193 -0.666667 -0.0391716
0.0643872 -0.666667 -0.0394217
0.0665167 -0.666667 -0.0399718
0.0675815 -0.666667 -0.0402468
0.0699319 -0.666667 -0.0408202
0.0711071 -0.666667 -0.0411069
0.0737039 -0.666667 -0.041689
0.0750023 -0.666667 -0.04198
0.077863 -0.666667 -0.0426016
0.0792933 -0.666667 -0.0429124
0.0824485 -0.666667 -0.0435559
0.0840261 -0.666667 -0.0438776
0.0875033 -0.666667 -0.0445525
0.089242 -0.666667 -0.0448899
0.093073 -0.666667 -0.0456003
0.0949885 -0.666667 -0.0459556
0.099214 -0.666667 -0.0466733
0.101327 -0.666667 -0.0470322
0.105984 -0.666667 -0.0477644
0.108313 -0.666667 -0.0481305
0.113445 -0.666667 -0.0488759
0.116011 -0.666667 -0.0492486
0.121657 -0.666667 -0.0500685
0.124479 -0.666667 -0.0504784
0.130706 -0.666667 -0.0512601
0.133819 -0.666667 -0.0516509
0.140681 -0.666667 -0.0523965
0.144112 -0.666667 -0.0527694
0.151663 -0.666667 -0.0535662
0.155438 -0.666667 -0.0539647
0.163756 -0.666667 -0.0547255
0.167915 -0.666667 -0.0551059
0.177077 -0.666667 -0.0557849
0.181658 -0.666667 -0.0561244
0.191741 -0.666667 -0.0568037
0.196783 -0.666667 -0.0571433
0.207464 -0.666667 -0.0576636
0.212805 -0.666667 -0.0579237
0.223486 -0.666667 -0.058444
0.228826 -0.666667 -0.0587041
0.239515 -0.666667 -0.0590136
0.24486 -0.666667 -0.0591683
0.255551 -0.666667 -0.0594238
0.260896 -0.666667 -0.0595516
0.271588 -0.666667 -0.059751
0.276934 -0.666667 -0.0598507
0.287627 -0.666667 -0.0598771
0.292974 -0.666667 -0.0598903
0.303668 -0.666667 -0.0599167
0.309015 -0.666667 -0.0599299
0.065452 -0.666667 -0.0396967
0.0665167 -0.666667 -0.0399718
0.0675815 -0.666667 -0.0402468
0.0699319 -0.666667 -0.0408202
0.0711071 -0.666667 -0.0411069
0.0737039 -0.666667 -0.041689
0.0750023 -0.666667 -0.04198
0.077863 -0.666667 -0.0426016
0.0792933 -0.666667 -0.0429124
0.0824485 -0.666667 -0.0435559
0.0840261 -0.666667 -0.0438776
0.0875033 -0.666667 -0.0445525
0.089242 -0.666667 -0.0448899
0.093073 -0.666667 -0.0456003
0.0949885 -0.666667 -0.0459556
0.099214 -0.666667 -0.0466733
0.101327 -0.666667 -0.0470322
0.105984 -0.666667 -0.0477644
0.108313 -0.666667 -0.0481305
0.113445 -0.666667 -0.0488759
0.116011 -0.666667 -0.0492486
0.121657 -0.666667 -0.0500685
0.124479 -0.666667 -0.0504784
0.130706 -0.666667 -0.0512601
0.133819 -0.666667 -0.0516509
0.140681 -0.666667 -0.0523965
0.144112 -0.666667 -0.0527694
0.151663 -0.666667 -0.0535662
0.155438 -0.666667 -0.0539647
0.163756 -0.666667 -0.0547255
0.167915 -0.666667 -0.0551059
0.177077 -0.666667 -0.0557849
0.181658 -0.666667 -0.0561244
0.191741 -0.666667 -0.0568037
0.196783 -0.666667 -0.0571433
0.207464 -0.666667 -0.0576636
0.212805 -0.666667 -0.0579237
0.223486 -0.666667 -0.058444
0.228826 -0.666667 -0.0587041
0.239515 -0.666667 -0.0590136
0.24486 -0.666667 -0.0591683
0.255551 -0.666667 -0.0594238
0.260896 -0.666667 -0.0595516
0.271588 -0.666667 -0.059751
0.276934 -0.666667 -0.0598507
0.287627 -0.666667 -0.0598771
0.292974 -0.666667 -0.0598903
0.303668 -0.666667 -0.0599167
0.309015 -0.666667 -0.0599299
0.319708 -0.666667 -0.0598792
0.325055 -0.666667 -0.0598539
0.0687567 -0.666667 -0.0405335
0.0699319 -0.666667 -0.0408202
0.0711071 -0.666667 -0.0411069
0.0737039 -0.666667 -0.041689
0.0750023 -0.666667 -0.04198
0.077863 -0.666667 -0.0426016
0.0792933 -0.666667 -0.0429124
0.0824485 -0.666667 -0.0435559
0.0840261 -0.666667 -0.0438776
0.0875033 -0.666667 -0.0445525
0.089242 -0.666667 -0.0448899
0.093073 -0.666667 -0.0456003
0.0949885 -0.666667 -0.0459556
0.099214 -0.666667 -0.0466733
0.101327 -0.666667 -0.0470322
0.105984 -0.666667 -0.0477644
0.108313 -0.666667 -0.0481305
0.113445 -0.666667 -0.0488759
0.116011 -0.666667 -0.0492486
0.121657 -0.666667 -0.0500685
0.124479 -0.666667 -0.0504784
0.130706 -0.666667 -0.0512601
0.133819 -0.666667 -0.0516509
0.140681 -0.666667 -0.0523965
0.144112 -0.666667 -0.0527694
0.151663 -0.666667 -0.0535662
0.155438 -0.666667 -0.0539647
0.163756 -0.666667 -0.0547255
0.167915 -0.666667 -0.0551059
0.177077 -0.666667 -0.0557849
0.181658 -0.666667 -0.0561244
0.191741 -0.666667 -0.0568037
0.196783 -0.666667 -0.0571433
0.207464 -0.666667 -0.0576636
0.212805 -0.666667 -0.0579237
0.223486 -0.666667 -0.058444
0.228826 -0.666667 -0.0587041
0.239515 -0.666667 -0.0590136
0.24486 -0.666667 -0.0591683
0.255551 -0.666667 -0.0594238
0.260896 -0.666667 -0.0595516
0.271588 -0.666667 -0.059751
0.276934 -0.666667 -0.0598507
0.287627 -0.666667 -0.0598771
0.292974 -0.666667 -0.0598903
0.303668 -0.666667 -0.0599167
0.309015 -0.666667 -0.0599299
0.319708 -0.666667 -0.0598792
0.325055 -0.666667 -0.0598539
0.335747 -0.666667 -0.0596835
0.341094 -0.666667 -0.0595984
0.0737039 -0.333333 -0.041689
0.0750023 -0.333333 -0.04198
0.0764327 -0.333333 -0.0422908
0.0792933 -0.333333 -0.0429124
0.0808709 -0.333333 -0.0432341
0.0840261 -0.333333 -0.0438776
0.0857647 -0.333333 -0.044215
0.089242 -0.333333 -0.0448899
0.0911575 -0.333333 -0.0452451
0.0949885 -0.333333 -0.0459556
0.0971013 -0.333333 -0.0463145
0.101327 -0.333333 -0.0470322
0.103655 -0.333333 -0.0473983
0.108313 -0.333333 -0.0481305
0.110879 -0.333333 -0.0485032
0.116011 -0.333333 -0.0492486
0.118834 -0.333333 -0.0496585
0.124479 -0.333333 -0.0504784
0.127592 -0.333333 -0.0508693
0.133819 -0.333333 -0.0516509
0.13725 -0.333333 -0.0520237
0.144112 -0.333333 -0.0527694
0.147887 -0.333333 -0.0531678
0.155438 -0.333333 -0.0539647
0.159597 -0.333333 -0.0543451
0.167915 -0.333333 -0.0551059
0.172496 -0.333333 -0.0554454
0.181658 -0.333333 -0.0561244
0.1867 -0.333333 -0.056464
0.196783 -0.333333 -0.0571433
0.202124 -0.333333 -0.0574034
0.212805 -0.333333 -0.0579237
0.218145 -0.333333 -0.0581838
0.228826 -0.333333 -0.0587041
0.234171 -0.333333 -0.0588588
0.24486 -0.333333 -0.0591683
0.250205 -0.333333 -0.0592961
0.260896 -0.333333 -0.0595516
0.266242 -0.333333 -0.0596513
0.276934 -0.333333 -0.0598507
0.282281 -0.333333 -0.0598639
0.292974 -0.333333 -0.0598903
0.298321 -0.333333 -0.0599035
0.309015 -0.333333 -0.0599299
0.314361 -0.333333 -0.0599045
0.325055 -0.333333 -0.0598539
0.330401 -0.333333 -0.0597687
0.341094 -0.333333 -0.0595984
0.346439 -0.333333 -0.0594969
0.357131 -0.333333 -0.059294
0.077863 -0.333333 -0.0426016
0.0792933 -0.333333 -0.0429124
0.0808709 -0.333333 -0.0432341
0.0840261 -0.333333 -0.0438776
0.0857647 -0.333333 -0.044215
0.089242 -0.333333 -0.0448899
0.0911575 -0.333333 -0.0452451
0.0949885 -0.333333 -0.0459556
0.0971013 -0.333333 -0.0463145
0.101327 -0.333333 -0.0470322
0.103655 -0.333333 -0.0473983
0.108313 -0.333333 -0.0481305
0.110879 -0.333333 -0.0485032
0.116011 -0.333333 -0.0492486
0.118834 -0.333333 -0.0496585
0.124479 -0.333333 -0.0504784
0.127592 -0.333333 -0.0508693
0.133819 -0.333333 -0.0516509
0.13725 -0.333333 -0.0520237
0.144112 -0.333333 -0.0527694
0.147887 -0.333333 -0.0531678
0.155438 -0.333333 -0.0539647
0.159597 -0.333333 -0.0543451
0.167915 -0.333333 -0.0551059
0.172496 -0.333333 -0.0554454
0.181658 -0.333333 -0.0561244
0.1867 -0.333333 -0.056464
0.196783 -0.333333 -0.0571433
0.202124 -0.333333 -0.0574034
0.212805 -0.333333 -0.0579237
0.218145 -0.333333 -0.0581838
0.228826 -0.333333 -0.0587041
0.234171 -0.333333 -0.0588588
0.24486 -0.333333 -0.0591683
0.250205 -0.333333 -0.0592961
0.260896 -0.333333 -0.0595516
0.266242 -0.333333 -0.0596513
0.276934 -0.333333 -0.0598507
0.282281 -0.333333 -0.0598639
0.292974 -0.333333 -0.0598903
0.298321 -0.333333 -0.0599035
0.309015 -0.333333 -0.0599299
0.314361 -0.333333 -0.0599045
0.325055 -0.333333 -0.0598539
0.330401 -0.333333 -0.0597687
0.341094 -0.333333 -0.0595984
0.346439 -0.333333 -0.0594969
0.357131 -0.333333 -0.059294
0.362476 -0.333333 -0.0591368
0.373165 -0.333333 -0.0588223
0.0824485 -0.333333 -0.0435559
0.0840261 -0.333333 -0.0438776
0.0857647 -0.333333 -0.044215
0.089242 -0.333333 -0.0448899
0.0911575 -0.333333 -0.0452451
0.0949885 -0.333333 -0.0459556
0.0971013 -0.333333 -0.0463145
0.101327 -0.333333 -0.0470322
0.103655 -0.333333 -0.0473983
0.108313 -0.333333 -0.0481305
0.110879 -0.333333 -0.0485032
0.116011 -0.333333 -0.0492486
0.118834 -0.333333 -0.0496585
0.124479 -0.333333 -0.0504784
0.127592 -0.333333 -0.0508693
0.133819 -0.333333 -0.0516509
0.13725 -0.333333 -0.0520237
0.144112 -0.333333 -0.0527694
0.147887 -0.333333 -0.0531678
0.155438 -0.333333 -0.0539647
0.159597 -0.333333 -0.0543451
0.167915 -0.333333 -0.0551059
0.172496 -0.333333 -0.0554454
0.181658 -0.333333 -0.0561244
0.1867 -0.333333 -0.056464
0.196783 -0.333333 -0.0571433
0.202124 -0.333333 -0.0574034
0.212805 -0.333333 -0.0579237
0.218145 -0.333333 -0.0581838
0.228826 -0.333333 -0.0587041
0.234171 -0.333333 -0.0588588
0.24486 -0.333333 -0.0591683
0.250205 -0.333333 -0.0592961
0.260896 -0.333333 -0.0595516
0.266242 -0.333333 -0.0596513
0.276934 -0.333333 -0.0598507
0.282281 -0.333333 -0.0598639
0.292974 -0.333333 -0.0598903
0.298321 -0.333333 -0.0599035
0.309015 -0.333333 -0.0599299
0.314361 -0.333333 -0.0599045
0.325055 -0.333333 -0.0598539
0.330401 -0.333333 -0.0597687
0.341094 -0.333333 -0.0595984
0.346439 -0.333333 -0.0594969
0.357131 -0.333333 -0.059294
0.362476 -0.333333 -0.0591368
0.373165 -0.333333 -0.0588223
0.378509 -0.333333 -0.0586502
0.389197 -0.333333 -0.058306
0.0875033 -0.333333 -0.0445525
0.089242 -0.333333 -0.0448899
0.0911575 -0.333333 -0.0452451
0.0949885 -0.333333 -0.0459556
0.0971013 -0.333333 -0.0463145
0.101327 -0.333333 -0.0470322
0.103655 -0.333333 -0.0473983
0.108313 -0.333333 -0.0481305
0.110879 -0.333333 -0.0485032
0.116011 -0.333333 -0.0492486
0.118834 -0.333333 -0.0496585
0.124479 -0.333333 -0.0504784
0.127592 -0.333333 -0.0508693
0.133819 -0.333333 -0.0516509
0.13725 -0.333333 -0.0520237
0.144112 -0.333333 -0.0527694
0.147887 -0.333333 -0.0531678
0.155438 -0.333333 -0.0539647
0.159597 -0.333333 -0.0543451
0.167915 -0.333333 -0.0551059
0.172496 -0.333333 -0.0554454
0.181658 -0.333333 -0.0561244
0.1867 -0.333333 -0.056464
0.196783 -0.333333 -0.0571433
0.202124 -0.333333 -0.0574034
0.212805 -0.333333 -0.0579237
0.218145 -0.333333 -0.0581838
[...]
POINT_DATA 8204
 FIELD attributes 2
U 3 8204 float
-1.25151e-13 	-3.55757e-34 	4.30951e-14 3.48634e-13 	9.91037e-34 	-1.20051e-13 0 	0 	0 4.19724e-13 	-1.68759e-33 	-1.3858e-13 0 	0 	0 -4.25005e-13 	1.73754e-34 	1.33086e-13 0 	0 	0 -4.21088e-13 	1.09792e-34 	1.24145e-13 0 	0 	0 -3.00659e-13 	1.28629e-35 	8.40677e-14 0 	0 	0 1.78333e-13 	1.15395e-35 	-4.72278e-14 0 	0 	0 -3.01751e-13 	1.92254e-35 	7.56686e-14 0 	0 	0 3.05521e-13 	9.22518e-34 	-7.24023e-14 0 	0 	0 -9.96538e-14 	7.48462e-37 	2.2089e-14 0 	0 	0 1.00264e-13 	-1.01307e-33 	-2.07949e-14 0 	0 	0 2.21095e-13 	-2.33921e-33 	-4.32916e-14 0 	0 	0 4.1715e-13 	-7.2571e-35 	-7.71916e-14 0 	0 	0 2.369e-13 	7.07578e-33 	-3.99097e-14 0 	0 	0 1.74717e-13 	-6.48268e-35 	-2.69911e-14 0 	0 	0 3.28244e-13 	-4.97457e-33 	-4.73453e-14 0 	0 	0 0 	0 	0 0 	0 	0 2.23627e-13 	4.47447e-33 	-2.56877e-14 0 	0 	0 0 	0 	0 0 	0 	0 -3.04758e-13 	0 	2.66721e-14 0 	0 	0 2.46926e-13 	0 	-1.90761e-14 0 	0 	0 -2.97281e-13 	3.4273e-33 	1.84055e-14 0 	0 	0 2.64531e-13 	2.81651e-33 	-1.35097e-14 0 	0 	0 4.33352e-14 	3.40563e-35 	-1.82035e-15 0 	0 	0 -2.81248e-13 	-4.89155e-34 	8.01912e-15 0 	0 	0 5.43689e-15 	-2.19416e-38 	-1.18223e-16 0 	0 	0
-4.28849e-13 	1.72428e-33 	1.41593e-13 -4.19724e-13 	1.68759e-33 	1.3858e-13 0 	0 	0 -4.25005e-13 	1.73754e-34 	1.33086e-13 0 	0 	0 -4.21088e-13 	1.09792e-34 	1.24145e-13 0 	0 	0 -3.00659e-13 	1.28629e-35 	8.40677e-14 0 	0 	0 1.78333e-13 	1.15395e-35 	-4.72278e-14 0 	0 	0 -3.01751e-13 	1.92254e-35 	7.56686e-14 0 	0 	0 3.05521e-13 	9.22518e-34 	-7.24023e-14 0 	0 	0 -9.96538e-14 	7.48462e-37 	2.2089e-14 0 	0 	0 1.00264e-13 	-1.01307e-33 	-2.07949e-14 0 	0 	0 2.21095e-13 	-2.33921e-33 	-4.32916e-14 0 	0 	0 4.1715e-13 	-7.2571e-35 	-7.71916e-14 0 	0 	0 2.369e-13 	7.07578e-33 	-3.99097e-14 0 	0 	0 1.74717e-13 	-6.48268e-35 	-2.69911e-14 0 	0 	0 3.28244e-13 	-4.97457e-33 	-4.73453e-14 0 	0 	0 0 	0 	0 0 	0 	0 2.23627e-13 	4.47447e-33 	-2.56877e-14 0 	0 	0 0 	0 	0 0 	0 	0 -3.04758e-13 	0 	2.66721e-14 0 	0 	0 2.46926e-13 	0 	-1.90761e-14 0 	0 	0 -2.97281e-13 	3.4273e-33 	1.84055e-14 0 	0 	0 2.64531e-13 	2.81651e-33 	-1.35097e-14 0 	0 	0 4.33352e-14 	3.40563e-35 	-1.82035e-15 0 	0 	0 -2.81248e-13 	-4.89155e-34 	8.01912e-15 0 	0 	0 5.43689e-15 	-2.19416e-38 	-1.18223e-16 0 	0 	0 9.62849e-15 	0 	-1.2848e-16 0 	0 	0
-4.29675e-13 	1.75663e-34 	1.34549e-13 -4.25005e-13 	1.73754e-34 	1.33086e-13 0 	0 	0 -4.21088e-13 	1.09792e-34 	1.24145e-13 0 	0 	0 -3.00659e-13 	1.28629e-35 	8.40677e-14 0 	0 	0 1.78333e-13 	1.15395e-35 	-4.72278e-14 0 	0 	0 -3.01751e-13 	1.92254e-35 	7.56686e-14 0 	0 	0 3.05521e-13 	9.22518e-34 	-7.24023e-14 0 	0 	0 -9.96538e-14 	7.48462e-37 	2.2089e-14 0 	0 	0 1.00264e-13 	-1.01307e-33 	-2.07949e-14 0 	0 	0 2.21095e-13 	-2.33921e-33 	-4.32916e-14 0 	0 	0 4.1715e-13 	-7.2571e-35 	-7.71916e-14 0 	0 	0 2.369e-13 	7.07578e-33 	-3.99097e-14 0 	0 	0 1.74717e-13 	-6.48268e-35 	-2.69911e-14 0 	0 	0 3.28244e-13 	-4.97457e-33 	-4.73453e-14 0 	0 	0 0 	0 	0 0 	0 	0 2.23627e-13 	4.47447e-33 	-2.56877e-14 0 	0 	0 0 	0 	0 0 	0 	0 -3.04758e-13 	0 	2.66721e-14 0 	0 	0 2.46926e-13 	0 	-1.90761e-14 0 	0 	0 -2.97281e-13 	3.4273e-33 	1.84055e-14 0 	0 	0 2.64531e-13 	2.81651e-33 	-1.35097e-14 0 	0 	0 4.33352e-14 	3.40563e-35 	-1.82035e-15 0 	0 	0 -2.81248e-13 	-4.89155e-34 	8.01912e-15 0 	0 	0 5.43689e-15 	-2.19416e-38 	-1.18223e-16 0 	0 	0 9.62849e-15 	0 	-1.2848e-16 0 	0 	0 2.91208e-13 	-4.44084e-33 	-5.80749e-16 0 	0 	0
-2.8388e-14 	7.40172e-36 	8.36935e-15 0 	0 	0 2.86342e-13 	-1.22504e-35 	-8.00645e-14 0 	0 	0 -1.73513e-13 	-1.12276e-35 	4.59514e-14 0 	0 	0 3.11485e-13 	-1.98456e-35 	-7.81095e-14 0 	0 	0 -3.15377e-13 	-9.52276e-34 	7.47379e-14 0 	0 	0 1.19585e-13 	-8.98154e-37 	-2.65068e-14 0 	0 	0 -1.00264e-13 	1.01307e-33 	2.07949e-14 0 	0 	0 -2.21095e-13 	2.33921e-33 	4.32916e-14 0 	0 	0 -4.06976e-13 	7.0801e-35 	7.53089e-14 0 	0 	0 -4.944e-13 	-1.47668e-32 	8.32898e-14 0 	0 	0 -2.0555e-13 	7.62669e-35 	3.17542e-14 0 	0 	0 -3.07729e-13 	4.66366e-33 	4.43862e-14 0 	0 	0 0 	0 	0 0 	0 	0 -2.23627e-13 	-4.47447e-33 	2.56877e-14 0 	0 	0 0 	0 	0 0 	0 	0 3.14589e-13 	0 	-2.75324e-14 0 	0 	0 -2.42084e-13 	0 	1.87021e-14 0 	0 	0 2.94903e-13 	-3.39988e-33 	-1.82583e-14 0 	0 	0 -3.38785e-13 	-3.60711e-33 	1.73019e-14 0 	0 	0 -4.10544e-14 	-3.22639e-35 	1.72454e-15 0 	0 	0 2.81248e-13 	4.89155e-34 	-8.01912e-15 0 	0 	0 -4.8932e-15 	1.97474e-38 	1.06401e-16 0 	0 	0 -1.06983e-14 	0 	1.42755e-16 0 	0 	0 -2.93303e-13 	4.47278e-33 	5.84927e-16 0 	0 	0 2.87433e-13 	-2.73224e-34 	1.52892e-15 0 	0 	0
-3.00659e-13 	1.28629e-35 	8.40677e-14 0 	0 	0 -1.73513e-13 	-1.12276e-35 	4.59514e-14 0 	0 	0 3.11485e-13 	-1.98456e-35 	-7.81095e-14 0 	0 	0 -3.15377e-13 	-9.52276e-34 	7.47379e-14 0 	0 	0 1.19585e-13 	-8.98154e-37 	-2.65068e-14 0 	0 	0 -1.00264e-13 	1.01307e-33 	2.07949e-14 0 	0 	0 -2.21095e-13 	2.33921e-33 	4.32916e-14 0 	0 	0 -4.06976e-13 	7.0801e-35 	7.53089e-14 0 	0 	0 -4.944e-13 	-1.47668e-32 	8.32898e-14 0 	0 	0 -2.0555e-13 	7.62669e-35 	3.17542e-14 0 	0 	0 -3.07729e-13 	4.66366e-33 	4.43862e-14 0 	0 	0 0 	0 	0 0 	0 	0 -2.23627e-13 	-4.47447e-33 	2.56877e-14 0 	0 	0 0 	0 	0 0 	0 	0 3.14589e-13 	0 	-2.75324e-14 0 	0 	0 -2.42084e-13 	0 	1.87021e-14 0 	0 	0 2.94903e-13 	-3.39988e-33 	-1.82583e-14 0 	0 	0 -3.38785e-13 	-3.60711e-33 	1.73019e-14 0 	0 	0 -4.10544e-14 	-3.22639e-35 	1.72454e-15 0 	0 	0 2.81248e-13 	4.89155e-34 	-8.01912e-15 0 	0 	0 -4.8932e-15 	1.97474e-38 	1.06401e-16 0 	0 	0 -1.06983e-14 	0 	1.42755e-16 0 	0 	0 -2.93303e-13 	4.47278e-33 	5.84927e-16 0 	0 	0 2.87433e-13 	-2.73224e-34 	1.52892e-15 0 	0 	0 0 	0 	0 0 	0 	0
-3.56667e-13 	-2.3079e-35 	9.44556e-14 0 	0 	0 3.11485e-13 	-1.98456e-35 	-7.81095e-14 0 	0 	0 -3.15377e-13 	-9.52276e-34 	7.47379e-14 0 	0 	0 1.19585e-13 	-8.98154e-37 	-2.65068e-14 0 	0 	0 -1.00264e-13 	1.01307e-33 	2.07949e-14 0 	0 	0 -2.21095e-13 	2.33921e-33 	4.32916e-14 0 	0 	0 -4.06976e-13 	7.0801e-35 	7.53089e-14 0 	0 	0 -4.944e-13 	-1.47668e-32 	8.32898e-14 0 	0 	0 -2.0555e-13 	7.62669e-35 	3.17542e-14 0 	0 	0 -3.07729e-13 	4.66366e-33 	4.43862e-14 0 	0 	0 0 	0 	0 0 	0 	0 -2.23627e-13 	-4.47447e-33 	2.56877e-14 0 	0 	0 0 	0 	0 0 	0 	0 3.14589e-13 	0 	-2.75324e-14 0 	0 	0 -2.42084e-13 	0 	1.87021e-14 0 	0 	0 2.94903e-13 	-3.39988e-33 	-1.82583e-14 0 	0 	0 -3.38785e-13 	-3.60711e-33 	1.73019e-14 0 	0 	0 -4.10544e-14 	-3.22639e-35 	1.72454e-15 0 	0 	0 2.81248e-13 	4.89155e-34 	-8.01912e-15 0 	0 	0 -4.8932e-15 	1.97474e-38 	1.06401e-16 0 	0 	0 -1.06983e-14 	0 	1.42755e-16 0 	0 	0 -2.93303e-13 	4.47278e-33 	5.84927e-16 0 	0 	0 2.87433e-13 	-2.73224e-34 	1.52892e-15 0 	0 	0 0 	0 	0 0 	0 	0 -6.24812e-14 	-1.86981e-33 	-1.24906e-15 0 	0 	0
4.86695e-14 	-3.10088e-36 	-1.22046e-14 0 	0 	0 -3.15377e-13 	-9.52276e-34 	7.47379e-14 0 	0 	0 1.19585e-13 	-8.98154e-37 	-2.65068e-14 0 	0 	0 -1.00264e-13 	1.01307e-33 	2.07949e-14 0 	0 	0 -2.21095e-13 	2.33921e-33 	4.32916e-14 0 	0 	0 -4.06976e-13 	7.0801e-35 	7.53089e-14 0 	0 	0 -4.944e-13 	-1.47668e-32 	8.32898e-14 0 	0 	0 -2.0555e-13 	7.62669e-35 	3.17542e-14 0 	0 	0 -3.07729e-13 	4.66366e-33 	4.43862e-14 0 	0 	0 0 	0 	0 0 	0 	0 -2.23627e-13 	-4.47447e-33 	2.56877e-14 0 	0 	0 0 	0 	0 0 	0 	0 3.14589e-13 	0 	-2.75324e-14 0 	0 	0 -2.42084e-13 	0 	1.87021e-14 0 	0 	0 2.94903e-13 	-3.39988e-33 	-1.82583e-14 0 	0 	0 -3.38785e-13 	-3.60711e-33 	1.73019e-14 0 	0 	0 -4.10544e-14 	-3.22639e-35 	1.72454e-15 0 	0 	0 2.81248e-13 	4.89155e-34 	-8.01912e-15 0 	0 	0 -4.8932e-15 	1.97474e-38 	1.06401e-16 0 	0 	0 -1.06983e-14 	0 	1.42755e-16 0 	0 	0 -2.93303e-13 	4.47278e-33 	5.84927e-16 0 	0 	0 2.87433e-13 	-2.73224e-34 	1.52892e-15 0 	0 	0 0 	0 	0 0 	0 	0 -6.24812e-14 	-1.86981e-33 	-1.24906e-15 0 	0 	0 -1.69972e-13 	-3.32762e-34 	-3.93411e-15 0 	0 	0
3.05521e-13 	9.22518e-34 	-7.24023e-14 0 	0 	0 1.19585e-13 	-8.98154e-37 	-2.65068e-14 0 	0 	0 -1.00264e-13 	1.01307e-33 	2.07949e-14 0 	0 	0 -2.21095e-13 	2.33921e-33 	4.32916e-14 0 	0 	0 -4.06976e-13 	7.0801e-35 	7.53089e-14 0 	0 	0 -4.944e-13 	-1.47668e-32 	8.32898e-14 0 	0 	0 -2.0555e-13 	7.62669e-35 	3.17542e-14 0 	0 	0 -3.07729e-13 	4.66366e-33 	4.43862e-14 0 	0 	0 0 	0 	0 0 	0 	0 -2.23627e-13 	-4.47447e-33 	2.56877e-14 0 	0 	0 0 	0 	0 0 	0 	0 3.14589e-13 	0 	-2.75324e-14 0 	0 	0 -2.42084e-13 	0 	1.87021e-14 0 	0 	0 2.94903e-13 	-3.39988e-33 	-1.82583e-14 0 	0 	0 -3.38785e-13 	-3.60711e-33 	1.73019e-14 0 	0 	0 -4.10544e-14 	-3.22639e-35 	1.72454e-15 0 	0 	0 2.81248e-13 	4.89155e-34 	-8.01912e-15 0 	0 	0 -4.8932e-15 	1.97474e-38 	1.06401e-16 0 	0 	0 -1.06983e-14 	0 	1.42755e-16 0 	0 	0 -2.93303e-13 	4.47278e-33 	5.84927e-16 0 	0 	0 2.87433e-13 	-2.73224e-34 	1.52892e-15 0 	0 	0 0 	0 	0 0 	0 	0 -6.24812e-14 	-1.86981e-33 	-1.24906e-15 0 	0 	0 -1.69972e-13 	-3.32762e-34 	-3.93411e-15 0 	0 	0 3.13678e-13 	-1.05895e-32 	9.81041e-15 0 	0 	0
-9.96538e-14 	7.48462e-37 	2.2089e-14 0 	0 	0 -1.00264e-13 	1.01307e-33 	2.07949e-14 0 	0 	0 -2.21095e-13 	2.33921e-33 	4.32916e-14 0 	0 	0 -4.06976e-13 	7.0801e-35 	7.53089e-14 0 	0 	0 -4.944e-13 	-1.47668e-32 	8.32898e-14 0 	0 	0 -2.0555e-13 	7.62669e-35 	3.17542e-14 0 	0 	0 -3.07729e-13 	4.66366e-33 	4.43862e-14 0 	0 	0 0 	0 	0 0 	0 	0 -2.23627e-13 	-4.47447e-33 	2.56877e-14 0 	0 	0 0 	0 	0 0 	0 	0 3.14589e-13 	0 	-2.75324e-14 0 	0 	0 -2.42084e-13 	0 	1.87021e-14 0 	0 	0 2.94903e-13 	-3.39988e-33 	-1.82583e-14 0 	0 	0 -3.38785e-13 	-3.60711e-33 	1.73019e-14 0 	0 	0 -4.10544e-14 	-3.22639e-35 	1.72454e-15 0 	0 	0 2.81248e-13 	4.89155e-34 	-8.01912e-15 0 	0 	0 -4.8932e-15 	1.97474e-38 	1.06401e-16 0 	0 	0 -1.06983e-14 	0 	1.42755e-16 0 	0 	0 -2.93303e-13 	4.47278e-33 	5.84927e-16 0 	0 	0 2.87433e-13 	-2.73224e-34 	1.52892e-15 0 	0 	0 0 	0 	0 0 	0 	0 -6.24812e-14 	-1.86981e-33 	-1.24906e-15 0 	0 	0 -1.69972e-13 	-3.32762e-34 	-3.93411e-15 0 	0 	0 3.13678e-13 	-1.05895e-32 	9.81041e-15 0 	0 	0 9.05548e-14 	0 	3.424e-15 0 	0 	0
-8.4222e-13 	8.5098e-33 	1.74677e-13 0 	0 	0 -2.21095e-13 	2.33921e-33 	4.32916e-14 0 	0 	0 -4.06976e-13 	7.0801e-35 	7.53089e-14 0 	0 	0 -4.944e-13 	-1.47668e-32 	8.32898e-14 0 	0 	0 -2.0555e-13 	7.62669e-35 	3.17542e-14 0 	0 	0 -3.07729e-13 	4.66366e-33 	4.43862e-14 0 	0 	0 0 	0 	0 0 	0 	0 -2.23627e-13 	-4.47447e-33 	2.56877e-14 0 	0 	0 0 	0 	0 0 	0 	0 3.14589e-13 	0 	-2.75324e-14 0 	0 	0 -2.42084e-13 	0 	1.87021e-14 0 	0 	0 2.94903e-13 	-3.39988e-33 	-1.82583e-14 0 	0 	0 -3.38785e-13 	-3.60711e-33 	1.73019e-14 0 	0 	0 -4.10544e-14 	-3.22639e-35 	1.72454e-15 0 	0 	0 2.81248e-13 	4.89155e-34 	-8.01912e-15 0 	0 	0 -4.8932e-15 	1.97474e-38 	1.06401e-16 0 	0 	0 -1.06983e-14 	0 	1.42755e-16 0 	0 	0 -2.93303e-13 	4.47278e-33 	5.84927e-16 0 	0 	0 2.87433e-13 	-2.73224e-34 	1.52892e-15 0 	0 	0 0 	0 	0 0 	0 	0 -6.24812e-14 	-1.86981e-33 	-1.24906e-15 0 	0 	0 -1.69972e-13 	-3.32762e-34 	-3.93411e-15 0 	0 	0 3.13678e-13 	-1.05895e-32 	9.81041e-15 0 	0 	0 9.05548e-14 	0 	3.424e-15 0 	0 	0 1.3348e-13 	-4.23198e-33 	5.93625e-15 0 	0 	0
-7.23584e-13 	7.6556e-33 	1.41682e-13 0 	0 	0 -4.06976e-13 	7.0801e-35 	7.53089e-14 0 	0 	0 -4.944e-13 	-1.47668e-32 	8.32898e-14 0 	0 	0 -2.0555e-13 	7.62669e-35 	3.17542e-14 0 	0 	0 -3.07729e-13 	4.66366e-33 	4.43862e-14 0 	0 	0 0 	0 	0 0 	0 	0 -2.23627e-13 	-4.47447e-33 	2.56877e-14 0 	0 	0 0 	0 	0 0 	0 	0 3.14589e-13 	0 	-2.75324e-14 0 	0 	0 -2.42084e-13 	0 	1.87021e-14 0 	0 	0 2.94903e-13 	-3.39988e-33 	-1.82583e-14 0 	0 	0 -3.38785e-13 	-3.60711e-33 	1.73019e-14 0 	0 	0 -4.10544e-14 	-3.22639e-35 	1.72454e-15 0 	0 	0 2.81248e-13 	4.89155e-34 	-8.01912e-15 0 	0 	0 -4.8932e-15 	1.97474e-38 	1.06401e-16 0 	0 	0 -1.06983e-14 	0 	1.42755e-16 0 	0 	0 -2.93303e-13 	4.47278e-33 	5.84927e-16 0 	0 	0 2.87433e-13 	-2.73224e-34 	1.52892e-15 0 	0 	0 0 	0 	0 0 	0 	0 -6.24812e-14 	-1.86981e-33 	-1.24906e-15 0 	0 	0 -1.69972e-13 	-3.32762e-34 	-3.93411e-15 0 	0 	0 3.13678e-13 	-1.05895e-32 	9.81041e-15 0 	0 	0 9.05548e-14 	0 	3.424e-15 0 	0 	0 1.3348e-13 	-4.23198e-33 	5.93625e-15 0 	0 	0 -3.17055e-13 	9.47769e-33 	-1.50963e-14 0 	0 	0
-5.49418e-13 	9.55814e-35 	1.01667e-13 0 	0 	0 -4.944e-13 	-1.47668e-32 	8.32898e-14 0 	0 	0 -2.0555e-13 	7.62669e-35 	3.17542e-14 0 	0 	0 -3.07729e-13 	4.66366e-33 	4.43862e-14 0 	0 	0 0 	0 	0 0 	0 	0 -2.23627e-13 	-4.47447e-33 	2.56877e-14 0 	0 	0 0 	0 	0 0 	0 	0 3.14589e-13 	0 	-2.75324e-14 0 	0 	0 -2.42084e-13 	0 	1.87021e-14 0 	0 	0 2.94903e-13 	-3.39988e-33 	-1.82583e-14 0 	0 	0 -3.38785e-13 	-3.60711e-33 	1.73019e-14 0 	0 	0 -4.10544e-14 	-3.22639e-35 	1.72454e-15 0 	0 	0 2.81248e-13 	4.89155e-34 	-8.01912e-15 0 	0 	0 -4.8932e-15 	1.97474e-38 	1.06401e-16 0 	0 	0 -1.06983e-14 	0 	1.42755e-16 0 	0 	0 -2.93303e-13 	4.47278e-33 	5.84927e-16 0 	0 	0 2.87433e-13 	-2.73224e-34 	1.52892e-15 0 	0 	0 0 	0 	0 0 	0 	0 -6.24812e-14 	-1.86981e-33 	-1.24906e-15 0 	0 	0 -1.69972e-13 	-3.32762e-34 	-3.93411e-15 0 	0 	0 3.13678e-13 	-1.05895e-32 	9.81041e-15 0 	0 	0 9.05548e-14 	0 	3.424e-15 0 	0 	0 1.3348e-13 	-4.23198e-33 	5.93625e-15 0 	0 	0 -3.17055e-13 	9.47769e-33 	-1.50963e-14 0 	0 	0 3.31413e-13 	-9.90841e-33 	1.76133e-14 0 	0 	0
-2.369e-13 	-7.07578e-33 	3.99097e-14 0 	0 	0 -2.0555e-13 	7.62669e-35 	3.17542e-14 0 	0 	0 -3.07729e-13 	4.66366e-33 	4.43862e-14 0 	0 	0 0 	0 	0 0 	0 	0 -2.23627e-13 	-4.47447e-33 	2.56877e-14 0 	0 	0 0 	0 	0 0 	0 	0 3.14589e-13 	0 	-2.75324e-14 0 	0 	0 -2.42084e-13 	0 	1.87021e-14 0 	0 	0 2.94903e-13 	-3.39988e-33 	-1.82583e-14 0 	0 	0 -3.38785e-13 	-3.60711e-33 	1.73019e-14 0 	0 	0 -4.10544e-14 	-3.22639e-35 	1.72454e-15 0 	0 	0 2.81248e-13 	4.89155e-34 	-8.01912e-15 0 	0 	0 -4.8932e-15 	1.97474e-38 	1.06401e-16 0 	0 	0 -1.06983e-14 	0 	1.42755e-16 0 	0 	0 -2.93303e-13 	4.47278e-33 	5.84927e-16 0 	0 	0 2.87433e-13 	-2.73224e-34 	1.52892e-15 0 	0 	0 0 	0 	0 0 	0 	0 -6.24812e-14 	-1.86981e-33 	-1.24906e-15 0 	0 	0 -1.69972e-13 	-3.32762e-34 	-3.93411e-15 0 	0 	0 3.13678e-13 	-1.05895e-32 	9.81041e-15 0 	0 	0 9.05548e-14 	0 	3.424e-15 0 	0 	0 1.3348e-13 	-4.23198e-33 	5.93625e-15 0 	0 	0 -3.17055e-13 	9.47769e-33 	-1.50963e-14 0 	0 	0 3.31413e-13 	-9.90841e-33 	1.76133e-14 0 	0 	0 -3.38427e-13 	-1.92088e-32 	-1.96412e-14 0 	0 	0
-3.80267e-13 	1.41094e-34 	5.87453e-14 0 	0 	0 -3.07729e-13 	4.66366e-33 	4.43862e-14 0 	0 	0 0 	0 	0 0 	0 	0 -2.23627e-13 	-4.47447e-33 	2.56877e-14 0 	0 	0 0 	0 	0 0 	0 	0 3.14589e-13 	0 	-2.75324e-14 0 	0 	0 -2.42084e-13 	0 	1.87021e-14 0 	0 	0 2.94903e-13 	-3.39988e-33 	-1.82583e-14 0 	0 	0 -3.38785e-13 	-3.60711e-33 	1.73019e-14 0 	0 	0 -4.10544e-14 	-3.22639e-35 	1.72454e-15 0 	0 	0 2.81248e-13 	4.89155e-34 	-8.01912e-15 0 	0 	0 -4.8932e-15 	1.97474e-38 	1.06401e-16 0 	0 	0 -1.06983e-14 	0 	1.42755e-16 0 	0 	0 -2.93303e-13 	4.47278e-33 	5.84927e-16 0 	0 	0 2.87433e-13 	-2.73224e-34 	1.52892e-15 0 	0 	0 0 	0 	0 0 	0 	0 -6.24812e-14 	-1.86981e-33 	-1.24906e-15 0 	0 	0 -1.69972e-13 	-3.32762e-34 	-3.93411e-15 0 	0 	0 3.13678e-13 	-1.05895e-32 	9.81041e-15 0 	0 	0 9.05548e-14 	0 	3.424e-15 0 	0 	0 1.3348e-13 	-4.23198e-33 	5.93625e-15 0 	0 	0 -3.17055e-13 	9.47769e-33 	-1.50963e-14 0 	0 	0 3.31413e-13 	-9.90841e-33 	1.76133e-14 0 	0 	0 -3.38427e-13 	-1.92088e-32 	-1.96412e-14 0 	0 	0 -2.20826e-13 	-9.55912e-35 	-1.37606e-14 0 	0 	0
7.38549e-13 	-1.11928e-32 	-1.06527e-13 0 	0 	0 0 	0 	0 0 	0 	0 -2.23627e-13 	-4.47447e-33 	2.56877e-14 0 	0 	0 0 	0 	0 0 	0 	0 3.14589e-13 	0 	-2.75324e-14 0 	0 	0 -2.42084e-13 	0 	1.87021e-14 0 	0 	0 2.94903e-13 	-3.39988e-33 	-1.82583e-14 0 	0 	0 -3.38785e-13 	-3.60711e-33 	1.73019e-14 0 	0 	0 -4.10544e-14 	-3.22639e-35 	1.72454e-15 0 	0 	0 2.81248e-13 	4.89155e-34 	-8.01912e-15 0 	0 	0 -4.8932e-15 	1.97474e-38 	1.06401e-16 0 	0 	0 -1.06983e-14 	0 	1.42755e-16 0 	0 	0 -2.93303e-13 	4.47278e-33 	5.84927e-16 0 	0 	0 2.87433e-13 	-2.73224e-34 	1.52892e-15 0 	0 	0 0 	0 	0 0 	0 	0 -6.24812e-14 	-1.86981e-33 	-1.24906e-15 0 	0 	0 -1.69972e-13 	-3.32762e-34 	-3.93411e-15 0 	0 	0 3.13678e-13 	-1.05895e-32 	9.81041e-15 0 	0 	0 9.05548e-14 	0 	3.424e-15 0 	0 	0 1.3348e-13 	-4.23198e-33 	5.93625e-15 0 	0 	0 -3.17055e-13 	9.47769e-33 	-1.50963e-14 0 	0 	0 3.31413e-13 	-9.90841e-33 	1.76133e-14 0 	0 	0 -3.38427e-13 	-1.92088e-32 	-1.96412e-14 0 	0 	0 -2.20826e-13 	-9.55912e-35 	-1.37606e-14 0 	0 	0 1.91876e-13 	9.82893e-33 	1.27519e-14 0 	0 	0
0 	0 	0 0 	0 	0 -2.23627e-13 	-4.47447e-33 	2.56877e-14 0 	0 	0 0 	0 	0 0 	0 	0 3.14589e-13 	0 	-2.75324e-14 0 	0 	0 -2.42084e-13 	0 	1.87021e-14 0 	0 	0 2.94903e-13 	-3.39988e-33 	-1.82583e-14 0 	0 	0 -3.38785e-13 	-3.60711e-33 	1.73019e-14 0 	0 	0 -4.10544e-14 	-3.22639e-35 	1.72454e-15 0 	0 	0 2.81248e-13 	4.89155e-34 	-8.01912e-15 0 	0 	0 -4.8932e-15 	1.97474e-38 	1.06401e-16 0 	0 	0 -1.06983e-14 	0 	1.42755e-16 0 	0 	0 -2.93303e-13 	4.47278e-33 	5.84927e-16 0 	0 	0 2.87433e-13 	-2.73224e-34 	1.52892e-15 0 	0 	0 0 	0 	0 0 	0 	0 -6.24812e-14 	-1.86981e-33 	-1.24906e-15 0 	0 	0 -1.69972e-13 	-3.32762e-34 	-3.93411e-15 0 	0 	0 3.13678e-13 	-1.05895e-32 	9.81041e-15 0 	0 	0 9.05548e-14 	0 	3.424e-15 0 	0 	0 1.3348e-13 	-4.23198e-33 	5.93625e-15 0 	0 	0 -3.17055e-13 	9.47769e-33 	-1.50963e-14 0 	0 	0 3.31413e-13 	-9.90841e-33 	1.76133e-14 0 	0 	0 -3.38427e-13 	-1.92088e-32 	-1.96412e-14 0 	0 	0 -2.20826e-13 	-9.55912e-35 	-1.37606e-14 0 	0 	0 1.91876e-13 	9.82893e-33 	1.27519e-14 0 	0 	0 -2.95583e-14 	-1.45235e-33 	-2.0942e-15 0 	0 	0
-7.31869e-13 	-1.46437e-32 	8.4069e-14 0 	0 	0 0 	0 	0 0 	0 	0 3.14589e-13 	0 	-2.75324e-14 0 	0 	0 -2.42084e-13 	0 	1.87021e-14 0 	0 	0 2.94903e-13 	-3.39988e-33 	-1.82583e-14 0 	0 	0 -3.38785e-13 	-3.60711e-33 	1.73019e-14 0 	0 	0 -4.10544e-14 	-3.22639e-35 	1.72454e-15 0 	0 	0 2.81248e-13 	4.89155e-34 	-8.01912e-15 0 	0 	0 -4.8932e-15 	1.97474e-38 	1.06401e-16 0 	0 	0 -1.06983e-14 	0 	1.42755e-16 0 	0 	0 -2.93303e-13 	4.47278e-33 	5.84927e-16 0 	0 	0 2.87433e-13 	-2.73224e-34 	1.52892e-15 0 	0 	0 0 	0 	0 0 	0 	0 -6.24812e-14 	-1.86981e-33 	-1.24906e-15 0 	0 	0 -1.69972e-13 	-3.32762e-34 	-3.93411e-15 0 	0 	0 3.13678e-13 	-1.05895e-32 	9.81041e-15 0 	0 	0 9.05548e-14 	0 	3.424e-15 0 	0 	0 1.3348e-13 	-4.23198e-33 	5.93625e-15 0 	0 	0 -3.17055e-13 	9.47769e-33 	-1.50963e-14 0 	0 	0 3.31413e-13 	-9.90841e-33 	1.76133e-14 0 	0 	0 -3.38427e-13 	-1.92088e-32 	-1.96412e-14 0 	0 	0 -2.20826e-13 	-9.55912e-35 	-1.37606e-14 0 	0 	0 1.91876e-13 	9.82893e-33 	1.27519e-14 0 	0 	0 -2.95583e-14 	-1.45235e-33 	-2.0942e-15 0 	0 	0 -2.37512e-13 	1.68863e-34 	-1.74357e-14 0 	0 	0
-6.91791e-13 	-5.38857e-32 	7.09249e-14 0 	0 	0 3.14589e-13 	0 	-2.75324e-14 0 	0 	0 -2.42084e-13 	0 	1.87021e-14 0 	0 	0 2.94903e-13 	-3.39988e-33 	-1.82583e-14 0 	0 	0 -3.38785e-13 	-3.60711e-33 	1.73019e-14 0 	0 	0 -4.10544e-14 	-3.22639e-35 	1.72454e-15 0 	0 	0 2.81248e-13 	4.89155e-34 	-8.01912e-15 0 	0 	0 -4.8932e-15 	1.97474e-38 	1.06401e-16 0 	0 	0 -1.06983e-14 	0 	1.42755e-16 0 	0 	0 -2.93303e-13 	4.47278e-33 	5.84927e-16 0 	0 	0 2.87433e-13 	-2.73224e-34 	1.52892e-15 0 	0 	0 0 	0 	0 0 	0 	0 -6.24812e-14 	-1.86981e-33 	-1.24906e-15 0 	0 	0 -1.69972e-13 	-3.32762e-34 	-3.93411e-15 0 	0 	0 3.13678e-13 	-1.05895e-32 	9.81041e-15 0 	0 	0 9.05548e-14 	0 	3.424e-15 0 	0 	0 1.3348e-13 	-4.23198e-33 	5.93625e-15 0 	0 	0 -3.17055e-13 	9.47769e-33 	-1.50963e-14 0 	0 	0 3.31413e-13 	-9.90841e-33 	1.76133e-14 0 	0 	0 -3.38427e-13 	-1.92088e-32 	-1.96412e-14 0 	0 	0 -2.20826e-13 	-9.55912e-35 	-1.37606e-14 0 	0 	0 1.91876e-13 	9.82893e-33 	1.27519e-14 0 	0 	0 -2.95583e-14 	-1.45235e-33 	-2.0942e-15 0 	0 	0 -2.37512e-13 	1.68863e-34 	-1.74357e-14 0 	0 	0 0 	0 	0 0 	0 	0