/*--------------------------------*- C++ -*----------------------------------*\
| =========                 |                                                 |
| \\      /  F ield         | OpenFOAM: The Open Source CFD Toolbox           |
|  \\    /   O peration     | Version:  2.3.0                                 |
|   \\  /    A nd           | Web:      www.OpenFOAM.org                      |
|    \\/     M anipulation  |                                                 |
\*---------------------------------------------------------------------------*/
FoamFile
{
    version     2.0;
    format      ascii;
    class       volScalarField;
    location    "100";
    object      k;
}
// * * * * * * * * * * * * * * * * * * * * * * * * * * * * * * * * * * * * * //

dimensions      [0 2 -2 0 0 0 0];

internalField   nonuniform List<scalar> 
28552
(
0.00410028
0.00410286
0.00410579
0.00410913
0.004113
0.00411752
0.00412284
0.00412919
0.00413686
0.00414626
0.00415797
0.00417282
0.00419206
0.00421791
0.00424978
0.00428933
0.00433866
0.0044005
0.00447851
0.00457759
0.00470471
0.00486926
0.0050868
0.00537543
0.00578362
0.00631052
0.00703203
0.00743717
0.00873335
0.0100331
0.0142431
0.0244383
0.0357071
0.040429
0.00410211
0.00410488
0.00410799
0.00411153
0.00411562
0.00412041
0.00412604
0.00413277
0.00414089
0.00415084
0.00416322
0.00417892
0.00419925
0.00422652
0.00426006
0.00430161
0.00435336
0.00441814
0.00449975
0.00460328
0.00473601
0.0049076
0.00513455
0.00543518
0.00586133
0.00638089
0.0071184
0.00747487
0.00880204
0.0100037
0.0141399
0.0243468
0.0359701
0.044907
0.00410404
0.004107
0.00411032
0.00411407
0.00411841
0.00412348
0.00412946
0.00413658
0.00414519
0.00415573
0.00416885
0.00418547
0.00420697
0.00423579
0.00427116
0.00431491
0.00436933
0.00443738
0.00452304
0.00463158
0.00477067
0.0049503
0.00518814
0.00550271
0.00595003
0.00645469
0.00721439
0.00752365
0.00889979
0.0100135
0.0143308
0.0245289
0.0358943
0.0504753
0.00410607
0.00410926
0.00411279
0.00411678
0.00412138
0.00412676
0.0041331
0.00414067
0.0041498
0.00416099
0.0041749
0.00419252
0.00421531
0.00424583
0.00428322
0.00432942
0.00438684
0.00445859
0.00454884
0.00466313
0.00480962
0.00499868
0.00524946
0.00558078
0.00605406
0.00653268
0.0073194
0.00757816
0.00901594
0.0100668
0.0144991
0.0248823
0.0354626
0.0576729
0.00410814
0.00411155
0.00411532
0.00411955
0.00412443
0.00413013
0.00413685
0.00414487
0.00415455
0.00416641
0.00418115
0.00419982
0.00422394
0.00425624
0.00429575
0.00434453
0.0044051
0.00448073
0.00457584
0.00469621
0.00485054
0.0050496
0.00531416
0.00566331
0.00616419
0.00659945
0.00740662
0.0076232
0.00910469
0.0100985
0.0145899
0.0250168
0.0350394
0.0667498
0.0041103
0.00411396
0.00411797
0.00412246
0.00412764
0.00413369
0.00414081
0.00414931
0.00415958
0.00417216
0.00418779
0.00420758
0.00423315
0.00426736
0.00430918
0.00436077
0.00442481
0.00450472
0.0046052
0.00473234
0.00489546
0.00510577
0.00538598
0.00575546
0.00626921
0.00666052
0.00749059
0.00766459
0.00919578
0.010141
0.0146855
0.025258
0.0346489
0.0789562
0.00411252
0.00411646
0.00412072
0.00412548
0.00413098
0.0041374
0.00414495
0.00415397
0.00416486
0.00417819
0.00419478
0.00421576
0.00424286
0.00427912
0.00432341
0.00437802
0.00444577
0.00453031
0.0046366
0.00477107
0.00494377
0.00516636
0.00546374
0.00584532
0.00636634
0.00671615
0.00756664
0.0077063
0.00927619
0.0101837
0.014743
0.0254167
0.0343282
0.0953976
0.00411478
0.00411903
0.00412357
0.00412863
0.00413446
0.00414126
0.00414927
0.00415883
0.00417038
0.00418452
0.0042021
0.00422435
0.00425309
0.00429152
0.00433844
0.00439627
0.00446801
0.0045575
0.00467004
0.0048124
0.00499545
0.00523132
0.00554733
0.00592541
0.00645364
0.00676496
0.00763183
0.00774666
0.00934254
0.0102208
0.0147703
0.0255209
0.0340853
0.118185
0.00411708
0.00412167
0.00412652
0.00413189
0.00413808
0.00414529
0.00415378
0.00416392
0.00417617
0.00419117
0.00420983
0.00423344
0.00426393
0.00430471
0.0043545
0.00441585
0.00449196
0.00458692
0.00470642
0.00485761
0.00505234
0.00530329
0.00564068
0.00599948
0.00653587
0.00681055
0.00769538
0.00779108
0.00941151
0.0102841
0.0147873
0.0257443
0.0335514
0.152793
0.0041194
0.00412435
0.00412952
0.00413523
0.00414179
0.00414943
0.00415844
0.00416918
0.00418217
0.00419808
0.00421788
0.00424293
0.00427529
0.00431857
0.00437143
0.00443657
0.00451741
0.0046183
0.00474538
0.00490624
0.00511383
0.00538147
0.00573564
0.00606455
0.00660698
0.00684696
0.00774495
0.00782684
0.00945839
0.0103294
0.014756
0.0259356
0.0328958
0.208544
0.00412184
0.00412718
0.0041327
0.00413876
0.00414573
0.00415383
0.00416339
0.0041748
0.00418859
0.00420548
0.00422651
0.00425313
0.00428753
0.00433355
0.00438977
0.00445908
0.00454515
0.00465262
0.00478816
0.00495985
0.00518194
0.00546847
0.00582457
0.00612373
0.00667243
0.00687667
0.00779059
0.00785686
0.00950492
0.0103727
0.0147242
0.0259742
0.0326943
0.309633
0.00412426
0.00412998
0.00413586
0.00414229
0.00414968
0.00415826
0.00416837
0.00418045
0.00419505
0.00421296
0.00423524
0.00426345
0.00429991
0.00434871
0.00440834
0.00448185
0.00457317
0.00468724
0.0048312
0.00501363
0.00525003
0.00554646
0.00590084
0.00617323
0.00672052
0.00690018
0.00780997
0.00788106
0.00951161
0.0103612
0.0146401
0.0257288
0.0338805
0.520842
0.00412676
0.00413289
0.00413914
0.00414598
0.0041538
0.0041629
0.00417362
0.00418642
0.00420191
0.00422091
0.00424457
0.00427453
0.00431328
0.00436516
0.0044286
0.00450686
0.00460415
0.00472578
0.00487951
0.00507452
0.00532791
0.00562434
0.00598047
0.0062282
0.0067805
0.00693475
0.00785064
0.00792577
0.00954624
0.0104208
0.014581
0.0260539
0.0382889
1.52218
0.00412935
0.0041359
0.00414254
0.00414981
0.00415812
0.00416776
0.00417913
0.00419273
0.00420918
0.00422937
0.00425453
0.00428642
0.00432768
0.00438296
0.00445064
0.00453421
0.00463826
0.00476847
0.0049334
0.00514292
0.00541609
0.00569652
0.00605253
0.00627652
0.00683004
0.00696277
0.00787677
0.00796851
0.00956425
0.0104837
0.0144907
0.0262854
0.0593879
3.90043
0.00413197
0.00413895
0.004146
0.00415373
0.00416253
0.00417275
0.0041848
0.00419922
0.00421668
0.00423811
0.00426483
0.00429872
0.00434259
0.00440142
0.0044735
0.00456258
0.00467359
0.00481265
0.00498908
0.00521347
0.00549269
0.00575443
0.00610735
0.00630881
0.006857
0.00697312
0.00787684
0.00797981
0.00955109
0.010461
0.0143553
0.025883
0.0876023
8.50214
0.00413463
0.00414206
0.00414953
0.00415774
0.00416708
0.0041779
0.00419069
0.00420598
0.00422452
0.00424729
0.0042757
0.00431175
0.00435847
0.00442116
0.00449805
0.00459319
0.00471193
0.00486086
0.00505021
0.00529144
0.00556954
0.00581537
0.00616708
0.00634826
0.00689337
0.00699485
0.00789014
0.00801046
0.00954979
0.01049
0.0142393
0.026616
0.251237
16.0015
0.00413739
0.00414529
0.00415323
0.00416196
0.00417187
0.00418336
0.00419694
0.0042132
0.00423293
0.00425718
0.00428746
0.00432594
0.00437584
0.00444287
0.00452524
0.00462731
0.00475494
0.00491531
0.00511977
0.00536875
0.00564288
0.00587356
0.00622272
0.00638556
0.00692537
0.00701777
0.00789803
0.00804926
0.00953966
0.0105315
0.0141779
0.0348873
0.705486
25.8108
0.00414019
0.00414857
0.00415698
0.00416627
0.00417678
0.00418897
0.00420339
0.00422068
0.00424166
0.00426748
0.00429975
0.00434078
0.00439405
0.00446569
0.00455386
0.00466327
0.00480032
0.00497283
0.00519333
0.00543441
0.00570367
0.00591969
0.00626443
0.00641089
0.00694121
0.00702669
0.00788942
0.00806428
0.00951382
0.010524
0.0140132
0.0432804
1.28623
36.3182
0.00414305
0.00415192
0.00416084
0.00417072
0.00418187
0.00419482
0.00421014
0.00422853
0.00425087
0.00427839
0.00431282
0.00435666
0.00441363
0.00449036
0.004585
0.00470268
0.00485045
0.00503689
0.00526707
0.00549707
0.00576139
0.00596328
0.00630427
0.00643419
0.00695881
0.00703822
0.00788587
0.00810181
0.00948397
0.0106052
0.0153993
0.106852
2.45464
45.3172
0.00414597
0.00415534
0.00416477
0.00417523
0.00418703
0.00420072
0.00421694
0.00423641
0.00426009
0.00428928
0.00432582
0.00437237
0.00443293
0.00451454
0.00461534
0.00474083
0.00489864
0.00509806
0.0053267
0.00554602
0.00580438
0.0059941
0.00632823
0.00644686
0.00695809
0.00703595
0.00786055
0.00809092
0.00942865
0.010525
0.0152551
0.121358
2.96064
51.9162
0.00414895
0.00415884
0.00416879
0.00417987
0.00419234
0.0042068
0.00422395
0.00424456
0.00426965
0.00430061
0.00433938
0.00438883
0.00445321
0.00454008
0.00464759
0.00478169
0.00495073
0.00516271
0.00538656
0.00559704
0.00585151
0.00602989
0.00636147
0.00646729
0.00697306
0.00705395
0.00784953
0.00814016
0.00938231
0.0107879
0.0217961
0.266364
4.32101
56.1517
0.00415201
0.00416242
0.0041729
0.00418461
0.00419776
0.004213
0.00423109
0.00425286
0.00427936
0.00431209
0.0043531
0.00440545
0.00447366
0.00456578
0.00467996
0.0048226
0.00500274
0.0052189
0.0054374
0.00563918
0.00588792
0.00605604
0.00638087
0.00647721
0.00697013
0.00705053
0.00782239
0.00811819
0.00931077
0.0106927
0.0239844
0.349041
4.96747
58.3123
0.00415513
0.00416606
0.00417709
0.00418944
0.00420327
0.00421931
0.00423834
0.00426126
0.0042892
0.0043237
0.00436697
0.00442221
0.00449425
0.00459161
0.00471244
0.00486358
0.00505477
0.00526774
0.00548137
0.0056753
0.00591899
0.00607809
0.00639724
0.0064854
0.00696761
0.00704652
0.00779922
0.00810885
0.00924545
0.0106178
0.0266687
0.439948
5.49028
59.2148
0.00415827
0.00416971
0.00418129
0.00419432
0.00420885
0.00422569
0.0042457
0.00426982
0.00429924
0.00433559
0.00438122
0.00443951
0.00451559
0.00461852
0.00474651
0.00490689
0.00510846
0.00531587
0.0055253
0.00571241
0.005952
0.00610393
0.00641679
0.00650202
0.00696662
0.00706399
0.00776091
0.00813028
0.00920423
0.0114668
0.0450744
0.660996
6.58234
59.0485
0.00416144
0.00417338
0.00418553
0.00419922
0.00421446
0.0042321
0.00425308
0.00427837
0.00430925
0.00434742
0.00439534
0.0044566
0.0045366
0.00464492
0.00477977
0.00494897
0.0051549
0.0053566
0.00556092
0.00574118
0.00597455
0.00611932
0.0064235
0.00650355
0.00695287
0.00705166
0.00772355
0.00806679
0.0091147
0.0113151
0.0482165
0.76698
7.09551
58.1168
0.00416472
0.0041772
0.00418992
0.00420429
0.00422026
0.00423873
0.00426068
0.00428719
0.00431957
0.0043596
0.0044099
0.0044742
0.00455824
0.0046721
0.00481403
0.00499233
0.00519836
0.00539502
0.00559501
0.00576927
0.00599773
0.00613597
0.00643404
0.00650834
0.00694668
0.00704732
0.00768844
0.00803418
0.00904224
0.0116687
0.061518
0.9577
8.10267
56.997
0.00416804
0.00418105
0.00419436
0.00420945
0.00422615
0.00424547
0.00426844
0.0042962
0.00433012
0.00437209
0.00442483
0.00449231
0.00458056
0.00470023
0.00484964
0.00503764
0.00524114
0.00543362
0.00562974
0.00579899
0.00602292
0.00615627
0.00644683
0.00651994
0.0069409
0.00705385
0.00764536
0.0080177
0.00900971
0.0131174
0.0900518
1.27202
9.84098
55.5906
0.00417143
0.004185
0.0041989
0.00421471
0.00423217
0.00425233
0.00427632
0.00430534
0.00434082
0.00438473
0.00443994
0.0045106
0.00460307
0.00472854
0.0048854
0.00507989
0.00527953
0.00546777
0.00565943
0.00582397
0.00604217
0.00617114
0.00645349
0.00652416
0.00692981
0.00704684
0.00760819
0.00797612
0.0089347
0.0137554
0.110131
1.56045
11.848
54.0661
0.00417489
0.00418903
0.00420355
0.00422011
0.00423834
0.00425938
0.00428443
0.00431475
0.00435185
0.00439779
0.00445558
0.00452957
0.00462647
0.00475808
0.00492289
0.00511986
0.00531592
0.0055005
0.00568792
0.00584848
0.0060608
0.00618748
0.00645915
0.00653364
0.00691823
0.00705169
0.00757454
0.00798005
0.00908303
0.0184679
0.176995
2.12529
14.7785
52.4711
0.00417838
0.0041931
0.00420824
0.00422555
0.00424457
0.00426648
0.00429259
0.00432422
0.00436294
0.00441091
0.00447127
0.00454859
0.00464992
0.00478764
0.00496035
0.00515624
0.00534848
0.00552918
0.00571201
0.00586843
0.00607466
0.00619791
0.00645955
0.00653387
0.00690013
0.00704041
0.00752918
0.00793055
0.00911356
0.0212661
0.226891
2.65509
18.0134
50.7471
0.00418193
0.00419721
0.00421299
0.00423106
0.00425086
0.00427365
0.00430081
0.00433373
0.00437406
0.00442404
0.00448694
0.00456753
0.0046732
0.0048169
0.00499726
0.00518912
0.00537735
0.00555422
0.00573233
0.00588476
0.00608461
0.00620435
0.00645684
0.00652912
0.0068802
0.00702068
0.00748299
0.00785855
0.00901021
0.0214239
0.253739
3.1454
21.728
49.4166
0.00418556
0.00420145
0.00421787
0.00423673
0.00425734
0.00428104
0.00430929
0.00434356
0.00438557
0.00443765
0.00450319
0.00458723
0.00469746
0.00484749
0.00503372
0.00522221
0.00540689
0.00558056
0.00575469
0.00590401
0.00609837
0.00621566
0.00645932
0.00653207
0.00686644
0.0070126
0.00743658
0.00782655
0.00920969
0.0278538
0.351006
4.05818
26.4788
48.4385
0.00418929
0.00420583
0.0042229
0.00424258
0.00426401
0.00428862
0.00431799
0.00435365
0.00439738
0.00445161
0.00451988
0.00460744
0.00472237
0.00487891
0.0050693
0.00525487
0.0054363
0.00560729
0.00577718
0.00592431
0.00611233
0.00622868
0.00646157
0.00653662
0.00685145
0.00700513
0.00739588
0.00781177
0.00948362
0.0355968
0.467646
5.15434
32.1689
47.6083
0.00419306
0.00421026
0.004228
0.00424851
0.00427079
0.00429634
0.00432685
0.00436392
0.00440941
0.00446585
0.00453692
0.00462811
0.00474799
0.00491135
0.00510378
0.00528656
0.00546444
0.00563301
0.00579811
0.00594352
0.00612396
0.00624043
0.00646038
0.00653949
0.00683267
0.00699502
0.00735344
0.00781088
0.0101423
0.0494045
0.652183
6.74344
38.8144
46.849
0.00419691
0.00421478
0.00423319
0.00425454
0.00427768
0.00430416
0.00433581
0.0043743
0.00442156
0.0044802
0.00455406
0.00464886
0.00477355
0.00494356
0.00513533
0.00531516
0.00548919
0.00565516
0.00581528
0.00595846
0.00613192
0.00624676
0.00645638
0.00653485
0.00681109
0.00697474
0.00730478
0.00776726
0.01026
0.0560067
0.789532
8.34935
45.0608
46.4805
0.00420084
0.00421944
0.00423852
0.00426076
0.00428476
0.0043122
0.00434503
0.00438498
0.00443408
0.00449503
0.0045718
0.00467038
0.00480011
0.00497699
0.00516586
0.00534292
0.00551316
0.00567689
0.00583213
0.00597386
0.00614014
0.00625478
0.00645301
0.00653348
0.00679131
0.00695938
0.00726188
0.00777068
0.0111763
0.0757183
1.06057
10.5109
50.7205
46.5307
0.00420485
0.00422421
0.00424399
0.00426712
0.00429203
0.00432045
0.00435449
0.00439595
0.00444693
0.00451022
0.00458997
0.00469243
0.00482734
0.00500959
0.00519539
0.00536996
0.00553654
0.00569844
0.00584875
0.0059896
0.00614827
0.00626337
0.00644939
0.00653243
0.00677074
0.00694324
0.00721842
0.00778038
0.0122676
0.0990821
1.38086
12.8763
55.7533
46.8617
0.00420896
0.00422911
0.00424959
0.00427364
0.00429945
0.00432888
0.00436416
0.00440715
0.00446006
0.00452575
0.00460856
0.00471498
0.00485518
0.00504126
0.00522401
0.00539631
0.00555912
0.0057194
0.00586447
0.00600463
0.00615527
0.00627095
0.00644439
0.00652966
0.00674889
0.00692458
0.00717507
0.00780524
0.0137739
0.130365
1.78483
15.5341
59.9835
47.4052
0.00421314
0.0042341
0.00425529
0.00428028
0.00430701
0.00433745
0.004374
0.00441856
0.00447342
0.00454156
0.00462748
0.00473795
0.00488352
0.00507183
0.00525149
0.00542157
0.00558054
0.0057393
0.00587911
0.00601877
0.00616133
0.00627771
0.00643875
0.00652609
0.00672684
0.00690528
0.00713418
0.00787176
0.0161566
0.175663
2.30566
18.4481
63.3307
48.098
0.0042175
0.00423927
0.00426121
0.00428716
0.00431484
0.00434633
0.00438419
0.00443038
0.00448728
0.00455797
0.00464713
0.00476183
0.00491293
0.00510181
0.00527834
0.00544636
0.00560147
0.00575891
0.00589329
0.00603279
0.0061669
0.00628436
0.00643232
0.00652214
0.00670403
0.0068851
0.00709796
0.00802861
0.0202274
0.243811
2.98249
21.698
65.7843
48.7871
0.00422202
0.00424461
0.0042673
0.00429422
0.00432287
0.00435543
0.00439463
0.00444248
0.00450145
0.00457473
0.00466717
0.00478614
0.00494275
0.00513068
0.00530401
0.00547001
0.00562111
0.00577726
0.00590605
0.00604528
0.00617106
0.00628903
0.00642471
0.00651539
0.00668006
0.00686169
0.00705808
0.0081423
0.0237598
0.311321
3.68194
24.8544
67.439
49.5651
0.00422664
0.00425006
0.00427353
0.00430145
0.00433108
0.00436476
0.00440535
0.00445492
0.00451605
0.00459203
0.00468792
0.00481138
0.00497363
0.0051592
0.00532936
0.00549348
0.00564069
0.00579564
0.00591899
0.00605814
0.00617559
0.00629451
0.00641746
0.00651012
0.00665756
0.00684135
0.00704747
0.00874856
0.0352746
0.464068
4.82012
28.44
68.4221
50.1252
0.00423146
0.0042557
0.00427997
0.0043089
0.00433954
0.00437435
0.00441636
0.00446768
0.004531
0.0046097
0.00470907
0.00483704
0.00500366
0.00518673
0.00535363
0.0055159
0.00565906
0.00581285
0.00593048
0.00606943
0.00617828
0.00629754
0.00640807
0.00650082
0.00663183
0.006815
0.0070192
0.00909364
0.0431047
0.589952
5.85968
31.6395
68.8415
50.669
0.00423655
0.0042616
0.00428672
0.00431666
0.00434833
0.00438432
0.0044278
0.00448094
0.00454653
0.00462806
0.00473103
0.00486361
0.00503332
0.00521388
0.00537746
0.0055379
0.00567698
0.00582957
0.00594149
0.00608012
0.00618066
0.00629986
0.00639889
0.00649098
0.0066072
0.00678969
0.00700455
0.00968555
0.0554352
0.768629
7.15656
34.6425
68.8064
51.174
0.00424182
0.00426771
0.0042937
0.00432469
0.00435743
0.00439466
0.00443969
0.00449474
0.00456271
0.00464723
0.00475402
0.0048914
0.00506307
0.00524115
0.00540153
0.00556027
0.00569549
0.00584693
0.00595353
0.0060919
0.00618442
0.00630383
0.00639098
0.00648346
0.00658491
0.00677069
0.00707045
0.0115866
0.0854645
1.09275
9.00528
37.6332
68.4702
51.471
0.00424723
0.00427396
0.00430084
0.00433289
0.0043667
0.00440518
0.00445177
0.00450875
0.00457913
0.00466666
0.00477726
0.00491935
0.00509186
0.00526756
0.0054247
0.00558187
0.00571315
0.00586364
0.00596461
0.00610292
0.00618693
0.00630649
0.00638161
0.00647349
0.00656008
0.0067467
0.00709543
0.0128588
0.108968
1.40085
10.9854
40.0971
67.9948
51.7103
0.00425291
0.00428049
0.0043083
0.00434143
0.00437636
0.00441616
0.0044644
0.00452341
0.00459632
0.00468701
0.00480164
0.00494853
0.00512082
0.00529412
0.00544808
0.00560367
0.00573109
0.00588047
0.00597597
0.00611398
0.00618973
0.00630919
0.00637273
0.00646409
0.00653758
0.00673137
0.00725623
0.0163546
0.161342
1.91956
13.4279
42.3144
67.2727
51.8244
0.00425868
0.00428713
0.0043159
0.00435013
0.00438622
0.00442738
0.00447733
0.00453846
0.00461401
0.00470802
0.00482686
0.0049786
0.00514961
0.00532054
0.00547138
0.00562537
0.00574912
0.0058972
0.00598768
0.00612505
0.00619309
0.00631212
0.00636437
0.00645554
0.00651819
0.00674254
0.00782817
0.0253546
0.268071
2.72916
16.2444
44.2843
66.5205
51.7004
0.00426458
0.0042939
0.00432364
0.00435898
0.00439624
0.00443879
0.00449047
0.00455373
0.00463195
0.00472928
0.00485235
0.00500878
0.00517742
0.00534596
0.00549357
0.00564589
0.00576576
0.00591244
0.00599751
0.00613399
0.00619384
0.00631186
0.00635273
0.00644236
0.00649479
0.00675209
0.00842486
0.0345664
0.377743
3.55134
18.8773
45.8245
65.7807
51.3896
0.0042709
0.0043011
0.00433186
0.00436833
0.00440679
0.00445081
0.0045043
0.00456979
0.00465078
0.00475157
0.00487895
0.00503928
0.00520504
0.00537102
0.00551524
0.00566559
0.00578137
0.00592613
0.00600568
0.00614044
0.00619244
0.00630815
0.0063389
0.00642533
0.00647034
0.00677347
0.00924345
0.0467842
0.517374
4.50334
21.3883
46.9934
65.0613
51.1049
0.00427763
0.00430871
0.00434053
0.00437814
0.00441785
0.00446339
0.00451876
0.00458657
0.00467043
0.00477479
0.00490653
0.00506967
0.00523247
0.00539576
0.0055365
0.00568469
0.00579632
0.00593888
0.00601305
0.00614572
0.00619028
0.00630323
0.00632452
0.00640716
0.006446
0.006802
0.0101543
0.0602788
0.670861
5.53152
23.723
47.8055
64.0375
50.9323
0.00428452
0.00431649
0.0043494
0.00438816
0.00442913
0.00447622
0.00453351
0.00460366
0.00469042
0.00479837
0.00493439
0.00509963
0.00525948
0.00542021
0.00555747
0.00570365
0.00581113
0.0059518
0.00602054
0.0061516
0.00618869
0.00629943
0.00631142
0.00639055
0.00642251
0.00682146
0.0109009
0.0725947
0.826036
6.59326
25.7618
48.2588
62.9825
50.9157
0.00429182
0.00432472
0.00435878
0.00439874
0.00444106
0.00448986
0.00454923
0.00462196
0.00471191
0.00482383
0.0049644
0.00513121
0.00528825
0.00544638
0.00558061
0.00572469
0.00582879
0.00596697
0.00603159
0.00615993
0.00619103
0.00629831
0.00630215
0.00637878
0.0064251
0.00713607
0.0154638
0.124496
1.23693
8.34725
28.0983
48.7252
61.9099
50.6794
0.00429964
0.00433349
0.00436875
0.00440994
0.00445369
0.00450428
0.00456585
0.00464129
0.00473458
0.0048506
0.00499565
0.00516347
0.00531771
0.00547327
0.00560454
0.00574653
0.00584721
0.00598288
0.00604308
0.00616868
0.00619313
0.00629701
0.00629186
0.00636622
0.00643067
0.00749026
0.0201821
0.175721
1.63513
9.98338
30.0292
49.0255
61.1234
50.2349
0.00430766
0.00434249
0.00437899
0.00442142
0.00446665
0.0045191
0.00458296
0.0046612
0.00475794
0.00487818
0.00502766
0.00519611
0.00534765
0.00550069
0.00562904
0.00576882
0.00586601
0.00599878
0.00605451
0.00617667
0.00619464
0.0062942
0.00628083
0.00635429
0.0064655
0.00820264
0.0287975
0.259308
2.18373
11.8522
31.8395
49.2322
60.2545
49.758
0.00431602
0.00435186
0.00438963
0.00443337
0.00448014
0.00453455
0.0046008
0.00468199
0.00478236
0.00490697
0.0050608
0.0052294
0.00537826
0.00552871
0.00565417
0.00579147
0.00588519
0.00601456
0.00606604
0.00618402
0.00619603
0.00629052
0.00627003
0.00634711
0.00656353
0.00958722
0.0435551
0.383968
2.88014
13.8807
33.4752
49.3699
59.4064
49.1995
0.00432507
0.00436196
0.00440107
0.00444614
0.00449456
0.00455107
0.00461987
0.00470419
0.00480838
0.0049375
0.00509547
0.00526356
0.00540967
0.00555735
0.0056799
0.00581443
0.00590463
0.00603024
0.00607741
0.00619081
0.00619678
0.00628588
0.00625868
0.00634358
0.00670852
0.0113812
0.0612375
0.5229
3.58778
15.7911
34.8487
49.4115
58.5865
48.6223
0.00433451
0.0043725
0.00441299
0.00445945
0.00450959
0.00456831
0.00463979
0.00472739
0.00483557
0.0049693
0.00513123
0.00529832
0.00544175
0.00558666
0.00570634
0.00583794
0.00592467
0.00604608
0.00608916
0.00619743
0.00619763
0.00628078
0.00624855
0.00635261
0.00698473
0.0143934
0.0885381
0.715313
4.45233
17.7312
36.0377
49.3066
57.7215
48.0787
0.00434436
0.0043835
0.00442542
0.00447332
0.0045253
0.00458635
0.00466067
0.00475174
0.00486411
0.00500258
0.00516825
0.00533398
0.00547487
0.005617
0.00573401
0.0058625
0.00594594
0.00606291
0.00609921
0.00620421
0.0061996
0.00627626
0.00624255
0.00639445
0.00756581
0.0199673
0.133502
0.991771
5.53138
19.7135
37.1014
49.1498
56.864
47.4534
0.00435499
0.00439534
0.00443876
0.00448819
0.00454214
0.0046057
0.00468307
0.00477787
0.00489467
0.00503798
0.00520704
0.00537093
0.00550939
0.00564869
0.00576315
0.00588831
0.00596861
0.00608045
0.00611331
0.00620995
0.00619939
0.00627196
0.00624199
0.00648229
0.00852367
0.0282603
0.19424
1.33083
6.7398
21.5883
37.9907
48.9518
56.0748
46.7547
0.00436622
0.00440784
0.00445283
0.00450388
0.00455995
0.00462621
0.00470685
0.00480563
0.00492711
0.00507534
0.00524743
0.00540919
0.00554544
0.00568194
0.00579406
0.00591567
0.00599304
0.00609918
0.00612894
0.00621794
0.00619771
0.00626704
0.00625136
0.00669446
0.0104698
0.0434345
0.293159
1.81595
8.26564
23.4967
38.8185
48.726
55.2333
45.9745
0.00437802
0.00442098
0.00446759
0.00452035
0.00457868
0.0046478
0.0047319
0.00483486
0.00496121
0.00511435
0.0052891
0.00544853
0.00558281
0.00571663
0.00582657
0.00594449
0.00601897
0.00611908
0.00614579
0.00622612
0.00620029
0.00626278
0.00628444
0.00708888
0.0136792
0.066177
0.426936
2.40708
9.88869
25.2774
39.5266
48.4799
54.439
45.1143
0.00439064
0.00443501
0.00448334
0.00453795
0.00459874
0.00467096
0.00475881
0.00486628
0.00499774
0.00515578
0.00533273
0.00548956
0.00562217
0.00575337
0.00586139
0.0059754
0.00604715
0.00614067
0.00616455
0.00623533
0.00620799
0.00627108
0.00638549
0.00794786
0.0199194
0.105714
0.63249
3.20008
11.7417
27.0294
40.1719
48.2166
53.6016
44.1574
0.00440418
0.00445006
0.00450021
0.00455681
0.00462028
0.00469587
0.00478778
0.00490008
0.00503689
0.00519972
0.00537812
0.00553232
0.00566359
0.00579232
0.00589874
0.00600871
0.00607793
0.00616444
0.00618564
0.00624652
0.00622027
0.00630099
0.00663494
0.00972981
0.031382
0.170197
0.927377
4.19136
13.7416
28.7015
40.7426
47.9396
52.7769
43.0803
0.00441846
0.00446593
0.00451801
0.00457678
0.00464315
0.00472237
0.00481864
0.00493607
0.00507843
0.00524583
0.0054247
0.00557672
0.0057071
0.00583369
0.00593896
0.00604499
0.006112
0.00619127
0.00621015
0.00626159
0.00624398
0.00639149
0.00725727
0.0136459
0.0537602
0.280711
1.36682
5.46191
15.9166
30.3724
41.2898
47.6597
51.8948
41.8263
0.00443373
0.00448291
0.00453705
0.00459819
0.00466774
0.00475091
0.00485193
0.00497485
0.00512291
0.00529454
0.00547262
0.00562292
0.00575285
0.00587766
0.00598236
0.00608463
0.00614988
0.00622181
0.00623921
0.00628452
0.00630074
0.0066655
0.00890892
0.0228452
0.0998156
0.477534
2.03834
7.11764
18.3223
32.062
41.8161
47.3725
51.0524
40.34
0.00444981
0.00450073
0.00455697
0.0046206
0.00469346
0.00478072
0.00488659
0.005015
0.00516844
0.00534338
0.00551918
0.00566795
0.00579764
0.00592096
0.00602556
0.00612455
0.00618871
0.00625427
0.00627286
0.00632489
0.00644519
0.00740127
0.0128439
0.0421467
0.183865
0.787353
2.95176
9.07221
20.7933
33.7416
42.4097
47.2032
50.0032
38.6093
0.00446397
0.00451644
0.00457456
0.00464044
0.00471628
0.0048072
0.00491738
0.00505056
0.00520842
0.00538495
0.00555827
0.005706
0.00583569
0.00595806
0.00606297
0.00615961
0.00622341
0.00628465
0.00630909
0.00639418
0.00675539
0.00899527
0.0207749
0.0778122
0.324163
1.2488
4.15145
11.2969
23.2603
35.3195
42.9359
46.9454
49.2372
36.9139
0.00447637
0.00453021
0.00459
0.00465791
0.00473639
0.00483056
0.00494453
0.00508182
0.00524322
0.00542032
0.0055917
0.00573866
0.0058684
0.00599008
0.00609537
0.00619024
0.00625407
0.00631344
0.00635231
0.00651955
0.00736971
0.0120579
0.0349298
0.135874
0.529488
1.85402
5.57753
13.7452
25.9338
37.1305
43.9492
47.607
48.76
34.456
0.00409854
0.00410096
0.00410372
0.00410689
0.00411056
0.00411483
0.00411987
0.00412589
0.00413315
0.00414205
0.00415314
0.00416722
0.00418548
0.00421004
0.0042404
0.00427815
0.0043253
0.00438449
0.00445924
0.00455431
0.00467637
0.00483455
0.00504358
0.00532133
0.00571314
0.00623603
0.00694432
0.00740276
0.00870359
0.0100718
0.0144122
0.0246587
0.0359813
0.0367506
0.00409849
0.00410089
0.00410361
0.00410673
0.00411034
0.00411453
0.00411947
0.00412534
0.00413242
0.00414107
0.00415183
0.00416545
0.00418307
0.00420668
0.0042358
0.00427191
0.0043169
0.00437323
0.00444419
0.00453416
0.00464931
0.00479805
0.00499367
0.00525285
0.00561417
0.00610354
0.0067898
0.00725664
0.00849747
0.00972512
0.0136815
0.0234145
0.0364212
0.0332759
0.00409841
0.00410078
0.00410346
0.00410653
0.00411007
0.00411417
0.00411899
0.00412471
0.0041316
0.00413999
0.0041504
0.00416353
0.00418047
0.00420308
0.00423091
0.00426532
0.00430807
0.00436146
0.00442851
0.00451329
0.0046214
0.00476059
0.00494274
0.00518332
0.00551505
0.00596254
0.00664173
0.007082
0.00830842
0.00931187
0.0128693
0.021667
0.0369422
0.0304407
0.00409829
0.00410063
0.00410327
0.00410628
0.00410974
0.00411375
0.00411845
0.00412402
0.0041307
0.00413883
0.00414888
0.00416152
0.00417778
0.0041994
0.00422594
0.00425868
0.00429927
0.00434982
0.00441316
0.00449305
0.00459464
0.00472507
0.00489511
0.00511914
0.00542576
0.00584014
0.00648274
0.00692721
0.00808785
0.00903902
0.0123418
0.0202258
0.0370332
0.0280312
0.00409817
0.00410046
0.00410305
0.004106
0.00410938
0.00411329
0.00411787
0.00412327
0.00412974
0.00413759
0.00414726
0.0041594
0.00417495
0.00419556
0.00422078
0.00425182
0.00429019
0.00433787
0.00439745
0.00447241
0.00456746
0.00468917
0.00484724
0.00505494
0.00533722
0.0057189
0.00629926
0.00675839
0.0078272
0.00875268
0.0116858
0.0186172
0.0367333
0.025976
0.00409799
0.00410023
0.00410277
0.00410565
0.00410894
0.00411275
0.00411719
0.00412242
0.00412866
0.00413622
0.00414551
0.00415712
0.00417195
0.00419153
0.00421542
0.00424474
0.00428091
0.00432575
0.00438166
0.00445184
0.00454063
0.00465406
0.00480096
0.00499361
0.00525399
0.00560631
0.00613439
0.00664137
0.00766187
0.00856792
0.0113446
0.017521
0.0350847
0.0241823
0.00409778
0.00409998
0.00410246
0.00410527
0.00410847
0.00411217
0.00411646
0.00412152
0.00412753
0.00413479
0.00414368
0.00415476
0.00416886
0.00418738
0.00420993
0.00423752
0.00427148
0.00431347
0.00436571
0.00443114
0.00451375
0.00461906
0.00475509
0.00493316
0.00517272
0.00549705
0.00597713
0.00652872
0.00750459
0.00845058
0.011101
0.0168823
0.0340534
0.0225883
0.00409749
0.00409964
0.00410205
0.00410478
0.00410788
0.00411145
0.0041156
0.00412046
0.00412622
0.00413315
0.00414161
0.00415212
0.00416543
0.00418283
0.00420394
0.00422971
0.00426131
0.00430029
0.00434866
0.00440908
0.00448518
0.00458195
0.0047066
0.00486941
0.00508736
0.00538249
0.00581346
0.00638881
0.00734637
0.00827066
0.0107686
0.0158156
0.0340208
0.0211752
0.00409715
0.00409924
0.00410158
0.00410422
0.00410722
0.00411065
0.00411463
0.00411928
0.00412478
0.00413137
0.00413939
0.00414929
0.00416177
0.00417801
0.00419764
0.0042215
0.00425068
0.00428655
0.00433092
0.00438618
0.00445558
0.00454358
0.00465659
0.00480375
0.00499977
0.00526496
0.00564689
0.00618277
0.00713989
0.00799441
0.0102941
0.0141909
0.0337685
0.0199396
0.00409676
0.00409878
0.00410105
0.00410359
0.00410648
0.00410978
0.00411359
0.00411803
0.00412326
0.0041295
0.00413706
0.00414635
0.00415801
0.00417309
0.00419124
0.00421324
0.00424003
0.00427286
0.00431335
0.00436363
0.00442662
0.00450629
0.00460834
0.00474094
0.00491693
0.00515485
0.00549417
0.00597456
0.00680703
0.0077804
0.00994893
0.0131295
0.0321491
0.0188455
0.00409632
0.00409828
0.00410046
0.00410291
0.00410568
0.00410884
0.00411248
0.0041167
0.00412165
0.00412753
0.00413462
0.0041433
0.00415412
0.00416803
0.00418471
0.00420483
0.00422924
0.00425904
0.00429567
0.00434102
0.00439768
0.00446916
0.00456049
0.00467888
0.00483553
0.00504706
0.00534631
0.00577287
0.00648841
0.00752606
0.00959144
0.0121335
0.0309683
0.0178696
0.00409583
0.00409772
0.00409982
0.00410217
0.00410483
0.00410784
0.0041113
0.00411529
0.00411996
0.00412549
0.00413211
0.00414018
0.00415017
0.00416293
0.00417815
0.00419644
0.00421853
0.00424541
0.00427832
0.00431894
0.00436953
0.00443321
0.00451437
0.00461938
0.00475801
0.00494512
0.0052083
0.0055854
0.00620274
0.00712916
0.00936796
0.0115369
0.0297264
0.0169893
0.00409528
0.0040971
0.00409911
0.00410137
0.0041039
0.00410676
0.00411003
0.0041138
0.00411818
0.00412334
0.00412949
0.00413693
0.00414609
0.0041577
0.00417147
0.00418794