/*--------------------------------*- C++ -*----------------------------------*\
| =========                 |                                                 |
| \\      /  F ield         | OpenFOAM: The Open Source CFD Toolbox           |
|  \\    /   O peration     | Version:  2.3.0                                 |
|   \\  /    A nd           | Web:      www.OpenFOAM.org                      |
|    \\/     M anipulation  |                                                 |
\*---------------------------------------------------------------------------*/
FoamFile
{
    version     2.0;
    format      ascii;
    class       surfaceScalarField;
    location    "0";
    object      phi;
}
// * * * * * * * * * * * * * * * * * * * * * * * * * * * * * * * * * * * * * //

dimensions      [0 3 -1 0 0 0 0];

internalField   nonuniform List<scalar> 
56756
(
0.36505
0.818394
-0.799022
-0.384403
0.339009
0.822809
-0.796753
0.317449
0.821512
-0.799946
0.297643
0.821339
-0.801533
0.278546
0.821632
-0.802539
0.259757
0.822168
-0.80338
0.241116
0.822889
-0.804251
0.22257
0.823801
-0.805255
0.204104
0.824941
-0.806473
0.185726
0.82636
-0.807981
0.167462
0.828132
-0.809864
0.149348
0.830347
-0.812231
0.131439
0.833126
-0.815215
0.113638
0.844904
-0.827103
0.0977881
0.771994
-0.756144
0.0837435
0.705812
-0.691768
0.0713648
0.645675
-0.633295
0.0605106
0.590961
-0.580109
0.0510486
0.541114
-0.531651
0.0428425
0.495629
-0.487424
0.0357653
0.454064
-0.446985
0.0296895
0.416025
-0.40995
0.0244985
0.381168
-0.375976
0.0200791
0.349189
-0.344771
0.0163303
0.319825
-0.316076
0.0131568
0.292842
-0.289669
0.0104734
0.268032
-0.265349
0.00819955
0.245212
-0.242939
0.00626056
0.224218
-0.222279
0.00458262
0.204901
-0.203224
0.00309333
0.187128
-0.185639
0.00172049
0.170777
-0.169405
0.0003993
0.155737
-0.154416
0.142528
-0.142129
0.304399
0.8322
-0.318156
0.289476
0.83775
0.273495
0.837499
0.257335
0.837499
0.241218
0.837745
0.225178
0.838204
0.209206
0.838858
0.193293
0.839713
0.17744
0.840793
0.161657
0.842142
0.145969
0.84382
0.13041
0.845908
0.115027
0.84851
0.0997392
0.860193
0.0861321
0.785601
0.0740827
0.717861
0.0634705
0.656286
0.0541778
0.600254
0.0460885
0.549203
0.0390873
0.50263
0.033062
0.46009
0.0279034
0.421184
0.0235069
0.385564
0.0197733
0.352923
0.0166089
0.322989
0.013925
0.295525
0.0116371
0.270319
0.00966278
0.247186
0.00791972
0.225961
0.00632361
0.206497
0.00478513
0.188666
0.00320922
0.172352
0.00149238
0.157453
0.144021
0.267269
0.849072
-0.284078
0.254049
0.850984
0.240346
0.851203
0.226393
0.851447
0.212334
0.851799
0.19824
0.852292
0.184147
0.852947
0.170074
0.853783
0.156036
0.854829
0.142052
0.856125
0.128148
0.857726
0.114355
0.859702
0.10072
0.862148
0.0871704
0.873744
0.0751144
0.797657
0.0644431
0.728532
0.0550491
0.665679
0.0468277
0.608475
0.0396742
0.556356
0.0334863
0.508819
0.028163
0.465413
0.023607
0.42574
0.0197245
0.389446
0.0164267
0.356221
0.0136294
0.325786
0.0112541
0.2979
0.00922701
0.272346
0.00748044
0.248932
0.00595157
0.227489
0.00458419
0.207864
0.00332867
0.189921
0.002143
0.173537
0.000993958
0.158601
0.145015
0.233602
0.867619
-0.252088
0.221475
0.863118
0.20933
0.863344
0.197086
0.863683
0.184754
0.864123
0.172364
0.864677
0.159941
0.865364
0.147511
0.86621
0.135093
0.867245
0.122709
0.868507
0.110386
0.870048
0.0981557
0.871933
0.0860589
0.874245
0.0740331
0.885769
0.0633314
0.808358
0.0538559
0.738006
0.0455145
0.674021
0.0382114
0.615777
0.0318564
0.562712
0.0263562
0.514318
0.0216235
0.470146
0.0175706
0.429792
0.0141166
0.3929
0.0111833
0.359153
0.00869999
0.328269
0.00660238
0.299997
0.00483504
0.274112
0.00335312
0.250414
0.00212489
0.228717
0.00113565
0.208853
0.000390573
0.190666
-7.91955e-05
0.174007
-0.00021434
0.158736
0.1448
0.219094
0.88445
-0.235874
0.208349
0.873864
0.197289
0.874397
0.186053
0.87491
0.174704
0.875463
0.16328
0.876094
0.151808
0.876832
0.14031
0.877705
0.128807
0.878745
0.117321
0.879991
0.105879
0.88149
0.0945098
0.883303
0.0832516
0.885504
0.0720451
0.896975
0.0620559
0.818346
0.053198
0.746863
0.0453825
0.681835
0.0385258
0.622634
0.0325399
0.568696
0.0273447
0.519514
0.0228554
0.474634
0.0189977
0.433651
0.0156942
0.396202
0.0128797
0.361968
0.0104886
0.330659
0.00846769
0.302018
0.00676553
0.275814
0.00534084
0.251838
0.0041538
0.229903
0.00316856
0.209838
0.00234597
0.191489
0.00164004
0.174713
0.000991222
0.159386
0.145792
0.192562
0.901031
-0.209102
0.182761
0.883662
0.172967
0.884183
0.163112
0.884755
0.153185
0.885381
0.143194
0.886079
0.133152
0.88687
0.123074
0.88778
0.112977
0.88884
0.102881
0.890086
0.0928084
0.891562
0.0827881
0.893323
0.0728527
0.895438
0.0629518
0.906876
0.0541167
0.827179
0.0462747
0.754705
0.0393492
0.688759
0.0332681
0.628716
0.027956
0.574008
0.023342
0.524128
0.0193542
0.478621
0.0159257
0.437079
0.0129919
0.399136
0.0104934
0.364466
0.00837601
0.332776
0.00659164
0.303802
0.00509854
0.277306
0.00386077
0.253076
0.00284896
0.230915
0.00203857
0.210648
0.00141101
0.192116
0.0009519
0.175172
0.000652182
0.159685
0.146444
0.176159
0.916754
-0.191848
0.167451
0.892367
0.15864
0.892986
0.14975
0.893636
0.140792
0.894333
0.131771
0.895095
0.122697
0.89594
0.113582
0.896893
0.104438
0.897981
0.0952836
0.899239
0.0861378
0.900707
0.0770252
0.902435
0.0679777
0.904485
0.058946
0.915905
0.0508755
0.835249
0.043698
0.76188
0.0373513
0.695107
0.031766
0.634299
0.0268812
0.578894
0.0226278
0.52838
0.0189476
0.482302
0.015775
0.44025
0.0130568
0.401855
0.0107335
0.366787
0.00875903
0.334751
0.00708281
0.305476
0.00566751
0.278721
0.00447395
0.254267
0.00347436
0.231913
0.00264274
0.211478
0.00196238
0.192795
0.001419
0.175714
0.00100602
0.160097
0.14745
0.158703
0.931444
-0.173366
0.151026
0.900041
0.143284
0.900721
0.135473
0.901439
0.127597
0.902204
0.119659
0.903029
0.111663
0.903932
0.10362
0.904935
0.0955379
0.906062
0.0874315
0.907344
0.0793174
0.90882
0.0712171
0.910534
0.0631575
0.912543
0.0550956
0.923966
0.0478752
0.842469
0.041442
0.768313
0.0357404
0.700807
0.0307154
0.639324
0.0263109
0.583298
0.0224725
0.532219
0.0191452
0.485629
0.0162772
0.443118
0.0138163
0.404315
0.0117149
0.368889
0.00992361
0.336541
0.00839893
0.307
0.007095
0.280024
0.00597133
0.25539
0.00498531
0.232898
0.00409959
0.212364
0.00327242
0.193621
0.00246996
0.176517
0.00165432
0.160913
0.149104
0.142864
0.945643
-0.157043
0.135998
0.906904
0.129076
0.907638
0.122086
0.908423
0.115028
0.909258
0.107903
0.910151
0.100715
0.911118
0.0934698
0.912178
0.0861755
0.913355
0.0788423
0.914676
0.0714838
0.916177
0.0641176
0.917899
0.0567666
0.919894
0.0493895
0.931343
0.0427587
0.849099
0.0368291
0.774242
0.0315537
0.706082
0.026886
0.643992
0.0227778
0.587406
0.0191831
0.535814
0.0160548
0.488757
0.0133501
0.445823
0.0110249
0.406639
0.00904095
0.370873
0.00735792
0.338223
0.00594203
0.308416
0.00475708
0.281208
0.00377314
0.256373
0.00296136
0.233708
0.00229673
0.213026
0.00176189
0.194157
0.00133881
0.176942
0.00101685
0.161237
0.150121
0.134998
0.957748
-0.147088
0.128817
0.913084
0.122454
0.913997
0.11598
0.914893
0.10942
0.915814
0.102785
0.916784
0.0960794
0.917823
0.0893078
0.918949
0.0824761
0.920186
0.0755921
0.921559
0.0686666
0.923102
0.0617138
0.924851
0.0547527
0.926854
0.0477408
0.938354
0.0414119
0.855427
0.035727
0.779927
0.0306444
0.711164
0.0261233
0.648513
0.02212
0.591408
0.0185944
0.539339
0.0155035
0.491847
0.0128115
0.448514
0.0104794
0.408969
0.00847885
0.372874
0.00677621
0.339923
0.00534964
0.309843
0.00417076
0.282384
0.00322008
0.257323
0.00247118
0.234455
0.00190263
0.213595
0.00148413
0.194573
0.00118966
0.177237
0.000985318
0.161442
0.151106
0.114182
0.970159
-0.126584
0.108716
0.918548
0.103352
0.919358
0.0979702
0.920271
0.0925317
0.92125
0.0870231
0.922291
0.0814416
0.923403
0.0757874
0.924602
0.0700639
0.925908
0.0642763
0.927346
0.0584328
0.928945
0.0525445
0.930739
0.0466272
0.93277
0.0406444
0.944336
0.0352244
0.860846
0.0303395
0.784811
0.0259582
0.715545
0.0220487
0.652423
0.0185748
0.594881
0.0155031
0.542411
0.0127955
0.494553
0.0104206
0.450889
0.00834216
0.411046
0.00653561
0.37468
0.00497193
0.341484
0.00363762
0.311177
0.00251623
0.283503
0.00160656
0.25823
0.000909652
0.235148
0.000435006
0.214066
0.000197904
0.194809
0.000212118
0.177221
0.000493042
0.16116
0.1516
0.117178
0.980134
-0.12715
0.112695
0.923031
0.107956
0.924095
0.103079
0.925147
0.0981027
0.926225
0.0930393
0.927354
0.0878926
0.928549
0.0826647
0.92983
0.0773578
0.931215
0.0719757
0.932728
0.0665246
0.934395
0.0610132
0.93625
0.0554544
0.938328
0.0498113
0.949979
0.0446771
0.865979
0.0400293
0.789459
0.0358407
0.719733
0.0320844
0.656179
0.0287275
0.598237
0.0257399
0.545399
0.0230836
0.497207
0.020726
0.453247
0.0186247
0.413144
0.0167445
0.376561
0.0150382
0.343188
0.0134678
0.312747
0.0119852
0.284984
0.0105503
0.259664
0.00911987
0.236577
0.00765824
0.215528
0.00612772
0.19634
0.00450465
0.178849
0.00276198
0.162908
0.154362
0.103834
0.988338
-0.112039
0.0995358
0.927328
0.0952006
0.92843
0.0907855
0.929561
0.0862822
0.930729
0.0816887
0.931948
0.0770047
0.933234
0.0722298
0.934605
0.0673646
0.93608
0.0624108
0.937681
0.057372
0.939434
0.0522543
0.941367
0.0470672
0.943515
0.0417737
0.955272
0.0369302
0.870822
0.0325205
0.793869
0.0285233
0.723729
0.0249182
0.659785
0.0216786
0.601476
0.0187822
0.548296
0.0162007
0.499787
0.0139122
0.455536
0.0118883
0.415167
0.010108
0.378342
0.00854291
0.344753
0.00717229
0.31412
0.00596749
0.286188
0.00490595
0.260725
0.00396424
0.237517
0.00311886
0.21637
0.00235578
0.197104
0.00165252
0.179554
0.00099228
0.16357
0.155354
0.0937607
0.995707
-0.101139
0.0897789
0.931309
0.0857554
0.932454
0.0816662
0.933652
0.0774965
0.9349
0.0732381
0.936207
0.0688859
0.937587
0.064437
0.939055
0.0598895
0.940628
0.0552433
0.942328
0.0504998
0.944178
0.0456636
0.946204
0.0407415
0.948437
0.035696
0.960317
0.0310575
0.87546
0.0268145
0.798112
0.0229486
0.727595
0.0194435
0.663291
0.0162749
0.604643
0.0134265
0.551146
0.0108725
0.502339
0.00860139
0.457808
0.00659089
0.417174
0.00483806
0.380096
0.00332577
0.346262
0.00205907
0.315388
0.00102727
0.287216
0.000238986
0.261513
-0.000311691
0.238065
-0.000617779
0.216676
-0.000685376
0.19717
-0.000514002
0.179385
-0.000114079
0.163173
0.15524
0.091185
1.00103
-0.0965267
0.0879585
0.934533
0.0846169
0.935795
0.0811835
0.937087
0.0776604
0.938425
0.0740458
0.939824
0.0703346
0.9413
0.0665235
0.942867
0.0626089
0.944544
0.0585901
0.946348
0.0544672
0.948301
0.0502435
0.950428
0.045925
0.952755
0.0414793
0.964763
0.0373756
0.879563
0.0336086
0.80188
0.0301641
0.731038
0.0270298
0.666427
0.0241818
0.60749
0.0216034
0.553725
0.0192645
0.504675
0.0171473
0.459926
0.0152184
0.4191
0.0134604
0.381855
0.0118403
0.347879
0.0103414
0.316888
0.00893437
0.288622
0.00760315
0.262845
0.00632679
0.23934
0.00509164
0.21791
0.00388731
0.198374
0.00270337
0.180569
0.00153367
0.164342
0.156773
0.0870265
1.00389
-0.0899124
0.0839099
0.937645
0.0807164
0.938991
0.0774412
0.940363
0.0740829
0.941788
0.0706303
0.943278
0.0670817
0.944852
0.0634271
0.946522
0.0596664
0.948307
0.055793
0.950221
0.0518101
0.952286
0.0477167
0.95452
0.0435213
0.956951
0.0391888
0.969095
0.0351804
0.883572
0.0314924
0.805568
0.0281144
0.734416
0.0250365
0.669506
0.022238
0.610287
0.0197051
0.556259
0.017411
0.506967
0.0153393
0.461998
0.0134621
0.420975
0.0117612
0.383557
0.0102091
0.349431
0.00878717
0.318313
0.0074696
0.289941
0.006239
0.264078
0.00507355
0.240506
0.00396011
0.219025
0.00288155
0.199452
0.00183047
0.181619
0.000797609
0.165374
0.157571
0.0760797
1.00547
-0.0776911
0.0729953
0.940729
0.0699267
0.942055
0.066833
0.943466
0.0636657
0.944954
0.0604224
0.946529
0.0570755
0.948198
0.0536305
0.949974
0.050068
0.951868
0.0463966
0.953898
0.0426038
0.956077
0.0387022
0.958426
0.0346872
0.960964
0.0305374
0.973249
0.0266865
0.88742
0.0231438
0.809114
0.0198942
0.737663
0.0169388
0.672465
0.0142559
0.612969
0.0118409
0.558677
0.00967096
0.509135
0.00773982
0.463931
0.00602815
0.422685
0.00453034
0.385056
0.00323333
0.350728
0.00213295
0.319414
0.00122097
0.290854
0.000493087
0.264807
-5.65903e-05
0.241056
-0.000433685
0.219402
-0.00064309
0.199663
-0.000693578
0.181672
-0.000595188
0.165278
0.156976
0.0762111
1.00514
-0.0759168
0.0734964
0.943438
0.0707571
0.944798
0.0679734
0.946253
0.0651273
0.947806
0.0621994
0.94946
0.0591793
0.951222
0.0560554
0.9531
0.0528238
0.955103
0.0494786
0.957244
0.0460214
0.959537
0.0424526
0.961996
0.0387806
0.964638
0.0349763
0.977053
0.0314508
0.890948
0.0282026
0.812363
0.025232
0.740637
0.0225266
0.675171
0.0200796
0.615419
0.0178701
0.560887
0.0158859
0.511123
0.0140989
0.465716
0.0124927
0.424294
0.0110341
0.386513
0.00970325
0.352061
0.00846529
0.320651
0.00729803
0.292022
0.00617293
0.265932
0.00507005
0.24216
0.00396715
0.220504
0.00285437
0.200779
0.00171558
0.182812
0.000545993
0.166449
0.157522
0.0705798
1.00386
-0.069324
0.0674518
0.946561
0.0643307
0.947923
0.0611729
0.949414
0.0579588
0.951025
0.0546696
0.952753
0.0512975
0.954598
0.0478322
0.956567
0.0442717
0.958667
0.040611
0.960907
0.0368536
0.963297
0.0330003
0.96585
0.0290606
0.96858
0.0250021
0.981113
0.0212602
0.894693
0.0178258
0.815798
0.0146943
0.743772
0.0118491
0.678017
0.00928273
0.617989
0.00697753
0.563192
0.00492771
0.513175
0.00312047
0.467524
0.00155454
0.425862
0.000223271
0.387845
-0.00087128
0.353157
-0.00173204
0.321513
-0.00235747
0.292649
-0.00275115
0.266326
-0.00291482
0.242326
-0.00285859
0.220448
-0.00258754
0.20051
-0.00212002
0.182344
-0.00146991
0.165799
0.156052
0.0639537
1.00164
-0.0617731
0.061785
0.948725
0.0595685
0.950143
0.0573027
0.951684
0.0549875
0.953346
0.0526146
0.955129
0.0501836
0.957033
0.0476889
0.959064
0.0451326
0.961226
0.0425131
0.963528
0.0398361
0.965977
0.037105
0.968583
0.0343311
0.971357
0.0314947
0.98395
0.0289026
0.897288
0.026543
0.818158
0.024408
0.74591
0.0224762
0.679949
0.0207322
0.619735
0.0191469
0.564777
0.0176987
0.514625
0.0163534
0.468868
0.0150854
0.427131
0.0138594
0.38907
0.01265
0.354369
0.0114257
0.322738
0.0101653
0.293911
0.00884762
0.267645
0.00746052
0.243714
0.00599304
0.221915
0.00444591
0.202059
0.00281728
0.183973
0.00111526
0.167501
0.157167
0.0579345
1.00012
-0.0564529
0.0551755
0.951479
0.0523465
0.952976
0.0494561
0.954578
0.0465141
0.956294
0.0435196
0.958126
0.0404779
0.960079
0.0373873
0.962157
0.0342533
0.964364
0.0310762
0.966706
0.0278637
0.969192
0.0246201
0.971828
0.021357
0.974623
0.018051
0.987257
0.0150535
0.900288
0.0123449
0.820868
0.0099123
0.748345
0.00773485
0.682127
0.00580058
0.621672
0.00409162
0.566487
0.00259928
0.516119
0.00131136
0.470157
0.000222583
0.428221
-0.000674864
0.389968
-0.00138496
0.35508
-0.00191475
0.323268
-0.00226941
0.294267
-0.00245797
0.267833
-0.00248791
0.243745
-0.00237263
0.221798
-0.00212007
0.201807
-0.00174857
0.183601
-0.00127106
0.167023
0.155896
0.0512402
0.998425
-0.0495748
0.0489255
0.953788
0.0465716
0.955333
0.0441715
0.956982
0.0417307
0.95874
0.039249
0.960611
0.036734
0.962598
0.0341867
0.964706
0.031615
0.966938
0.0290215
0.969302
0.0264152
0.971801
0.0238018
0.974443
0.0211935
0.977234
0.0185734
0.989878
0.0162194
0.902644
0.0141101
0.822978
0.0122298
0.750228
0.0105543
0.683803
0.00906761
0.623161
0.00774533
0.567809
0.00657327
0.517293
0.00552967
0.471199
0.00460413
0.429148
0.00377884
0.390792
0.00304764
0.355813
0.0023978
0.323917
0.00182503
0.29484
0.00132288
0.268335
0.000888493
0.24418
0.000516263
0.222171
0.000206723
0.20212
-4.73242e-05
0.183857
-0.000248143
0.167226
0.155648
0.045761
0.99706
-0.0444286
0.0438174
0.955726
0.0418549
0.957298
0.0398594
0.95898
0.0378343
0.96077
0.0357792
0.962669
0.0337028
0.964678
0.0316075
0.966803
0.0295027
0.969046
0.0273923
0.971413
0.0252866
0.973909
0.0231917
0.976539
0.0211201
0.979308
0.0190604
0.991938
0.0172312
0.904476
0.015611
0.824598
0.0141846
0.751657
0.0129286
0.685059
0.0118261
0.624266
0.0108526
0.568782
0.00998886
0.518158
0.00920948
0.471979
0.00849319
0.429866
0.00781475
0.391472
0.00715308
0.356476
0.00648515
0.324586
0.00579361
0.295532
0.00506148
0.269067
0.00427873
0.244963
0.00343516
0.223012
0.00253171
0.203024
0.00156365
0.184824
0.00053582
0.168253
0.156184
0.0458717
0.996538
-0.0453794
0.0432846
0.958309
0.0406304
0.959955
0.0379276
0.961686
0.035192
0.963511
0.0324285
0.965435
0.0296482
0.967462
0.026855
0.969597
0.024059
0.971845
0.0212648
0.974209
0.0184827
0.976694
0.0157186
0.979304
0.0129843
0.982044
0.0102612
0.994662
0.00783257
0.906907
0.00567078
0.826761
0.00375672
0.753573
0.00206659
0.686749
0.000587912
0.625746
-0.000696292
0.570066
-0.00179082
0.519254
-0.00270555
0.472893
-0.00343862
0.4306
-0.00399584
0.392028
-0.00437273
0.356854
-0.00457374
0.324786
-0.00459792
0.295556
-0.00444973
0.268918
-0.00413382
0.244648
-0.00366045
0.222539
-0.00303724
0.202404
-0.00228123
0.184071
-0.001407
0.167381
0.154777
0.0448941
0.995018
-0.0434008
0.0428213
0.960377
0.0407073
0.962072
0.0385599
0.963836
0.0363921
0.965683
0.0342086
0.96762
0.0320205
0.969653
0.0298325
0.971787
0.027655
0.974025
0.0254933
0.976372
0.023358
0.978831
0.0212553
0.981408
0.0191966
0.984105
0.0171687
0.996691
0.0153805
0.908697
0.0138029
0.828338
0.0124137
0.754964
0.0111853
0.687978
0.0100973
0.626836
0.0091251
0.571038
0.00825076
0.520129
0.00745351
0.47369
0.00671818
0.431337
0.00602803
0.392718
0.00537127
0.357512
0.00473479
0.325423
0.00411083
0.29618
0.00349089
0.269537
0.00287175
0.245266
0.00224831
0.22316
0.00162374
0.203029
0.000993924
0.1847
0.000361449
0.168013
0.155138
0.0351389
0.993554
-0.0336988
0.0333167
0.962196
0.0315237
0.963867
0.0297332
0.965629
0.0279425
0.967478
0.0261508
0.969414
0.0243661
0.971441
0.0225924
0.973562
0.0208396
0.97578
0.0191133
0.978099
0.017424
0.980523
0.0157784
0.983054
0.0141879
0.985697
0.0126448
0.998234
0.0113078
0.910036
0.0101493
0.829497
0.00914859
0.755966
0.00827883
0.688847
0.00752167
0.627594
0.00685274
0.571707
0.00625681
0.520726
0.00571265
0.474233
0.00520902
0.431842
0.00472754
0.393198
0.00426073
0.357979
0.00379482
0.325887
0.00332425
0.29665
0.00284223
0.270018
0.00234579
0.245763
0.00183136
0.223675
0.00130146
0.203562
0.000753784
0.18525
0.000190669
0.168579
0.155329
0.032613
0.992553
-0.0316319
0.0305659
0.96424
0.0284914
0.965944
0.0264062
0.967717
0.0243218
0.969566
0.0222419
0.971496
0.0201751
0.97351
0.0181257
0.975612
0.0161032
0.977805
0.0141131
0.98009
0.0121657
0.982472
0.010268
0.984952
0.00843202
0.987535
0.00664916
1.00002
0.00510356
0.911583
0.00376699
0.830834
0.00261837
0.757116
0.00163296
0.689833
0.000793759
0.628435
8.17561e-05
0.572419
-0.000514898
0.521324
-0.00100849
0.474727
-0.00140556
0.43224
-0.0017124
0.393506
-0.0019313
0.358199
-0.00206562
0.326022
-0.00211549
0.2967
-0.00208345
0.269985
-0.00196973
0.245648
-0.00177851
0.223481
-0.00150976
0.203293
-0.00117194
0.184911
-0.000770229
0.168176
0.154559
0.027729
0.991325
-0.0265196
0.0260409
0.965925
0.0243691
0.967618
0.0227066
0.969382
0.0210568
0.971219
0.0194215
0.973133
0.0178084
0.975126
0.0162215
0.9772
0.01467
0.979358
0.0131591
0.981602
0.0116991
0.983933
0.0102973
0.986355
0.00896561
0.988868
0.0077017
1.00128
0.00663769
0.912648
0.00574928
0.831722
0.00501856
0.757849
0.00442305
0.690428
0.00394701
0.628912
0.0035687
0.572797
0.00327292
0.521621
0.00303791
0.474961
0.00284901
0.432429
0.00268419
0.393669
0.0025301
0.358353
0.00236769
0.326183
0.00218518
0.296882
0.00197058
0.270198
0.00171598
0.245902
0.00141469
0.223782
0.00106617
0.203644
0.000667574
0.185312
0.000220845
0.168625
0.15478
0.0231848
0.990716
-0.0225909
0.0212886
0.967819
0.019418
0.96949
0.0175642
0.971237
0.0157296
0.973056
0.013915
0.974949
0.0121272
0.976915
0.0103702
0.978958
0.00865199
0.981078
0.00697778
0.983276
0.00535687
0.985556
0.00379578
0.987916
0.00230549
0.99036
0.000881334
1.00271
-0.000329284
0.91386
-0.00135112
0.832744
-0.00220148
0.7587
-0.00289937
0.691126
-0.00345682
0.62947
-0.00388678
0.573227
-0.00419697
0.521931
-0.00439567
0.47516
-0.00448827
0.432522
-0.0044805
0.393662
-0.00437717
0.358251
-0.00418451
0.32599
-0.00390769
0.296605
-0.00355432
0.269844
-0.00313051
0.245477
-0.00264528
0.223294
-0.0021039
0.203101
-0.00151792
0.184724
-0.000895523
0.168
0.153884
0.0224084
0.989996
-0.0217021
0.0207778
0.969447
0.0191468
0.971123
0.0175263
0.972859
0.0159253
0.97466
0.0143482
0.976527
0.0128026
0.978463
0.0112926
0.980468
0.00982605
0.982545
0.00840779
0.984695
0.00704598
0.986918
0.00574621
0.989217
0.00451743
0.99159
0.00335464
1.00387
0.00237477
0.914841
0.00155185
0.833567
0.000866408
0.759386
0.000297122
0.691695
-0.000169883
0.629938
-0.000550785
0.573607
-0.000854136
0.522235
-0.00109129
0.475396
-0.00126591
0.432697
-0.00138623
0.39378
-0.00145285
0.358317
-0.00147122
0.326007
-0.00144212
0.296574
-0.00136807
0.269769
-0.00125095
0.245359
-0.00109383
0.223136
-0.00089795
0.202907
-0.000668533
0.184496
-0.000409622
0.167744
0.153475
0.0202078
0.988681
-0.018904
0.0190543
0.970599
0.0179113
0.972267
0.0167857
0.973986
0.0156857
0.975762
0.0146157
0.977598
0.0135827
0.979497
0.0125911
0.981461
0.0116479
0.98349
0.0107577
0.985586
0.00992788
0.987749
0.0091631
0.989982
0.0084706
0.992283
0.00784869
1.00449
0.00735594
0.915335
0.00696732
0.833955
0.0066626
0.759692
0.00641942
0.691938
0.00621954
0.630138
0.00604359
0.573783
0.00587515
0.522404
0.00569813
0.475573
0.0054983
0.432897
0.00526346
0.394016
0.00498289
0.358598
0.00464816
0.326341
0.00425371
0.296969
0.00379555
0.270225
0.00327371
0.245879
0.00268896
0.223718
0.00204766
0.203547
0.00135288
0.185189
0.000611986
0.168482
0.154087
0.0146868
0.98755
-0.0135654
0.0134007
0.971884
0.0121537
0.973515
0.0109396
0.975201
0.00975943
0.976944
0.00861471
0.978744
0.00751066
0.980602
0.00645074
0.982521
0.00544125
0.9845
0.00448629
0.986541
0.00359244
0.988644
0.00276414
0.99081
0.00200815
0.99304
0.00132211
1.00518
0.00077164
0.915886
0.000333037
0.834394
-1.207e-05
0.760038
-0.000282881
0.692209
-0.000492659
0.630349
-0.000655685
0.573945
-0.000780091
0.522529
-0.000875247
0.475668
-0.00094404
0.432966
-0.000991958
0.394062
-0.0010179
0.358624
-0.0010238
0.326346
-0.00100752
0.296951
-0.00096777
0.270184
-0.000902927
0.245814
-0.000811946
0.223627
-0.00069299
0.203429
-0.000547373
0.185045
-0.000376266
0.168313
0.15371
0.00924379
0.986587
-0.00828969
0.00816452
0.972962
0.00712922
0.974551
0.00613186
0.9762
0.00517308
0.977904
0.00425425
0.979664
0.0033797
0.981478
0.00255283
0.983348
0.00177921
0.985274
0.00106276
0.987258
0.000409692
0.989298
-0.000175593
0.991396
-0.000686429
0.993551
-0.00112163
1.00561
-0.00143981
0.916204
-0.00166087
0.834615
-0.00179962
0.760177
-0.00187053
0.69228
-0.00188421
0.630363
-0.00185059
0.573912
-0.00177782
0.522456
-0.00167283
0.475563
-0.00154314
0.432837
-0.0013943
0.393914
-0.00123379
0.358463
-0.00106741
0.32618
-0.000901673
0.296785
-0.000742627
0.270024
-0.000595049
0.245665
-0.00046377
0.223493
-0.000350257
0.203315
-0.000258749
0.184952
-0.00019035
0.168243
0.15352
0.00789637
0.985847
-0.00716401
0.0067582
0.974098
0.00563665
0.975673
0.00454386
0.977293
0.00348683
0.978962
0.00246987
0.980681
0.00149811
0.982451
0.000575192
0.984271
-0.000293632
0.986144
-0.00110443
0.988069
-0.0018517
0.990046
-0.00253102
0.992075
-0.00313621
0.994157
-0.00366702
1.00614
-0.00407255
0.91661
-0.00437277
0.834915
-0.0045827
0.760387
-0.00471651
0.692413
-0.0047835
0.63043
-0.00479262
0.573921
-0.00474838
0.522412
-0.00465566
0.47547
-0.00451516
0.432696
-0.00432949
0.393727
-0.00409736
0.358231
-0.0038201
0.325901
-0.00349717
0.296461
-0.00312899
0.269655
-0.00271695
0.245252
-0.00226295
0.223038
-0.00176933
0.202822
-0.00124062
0.184424
-0.00068184
0.167685
0.152838
0.00524488
0.984706
-0.00411088
0.0045126
0.974829
0.00381374
0.976372
0.00315126
0.977957
0.00252921
0.979585
0.00195115
0.98126
0.00142145
0.982981
0.00094382
0.984749
0.000523034
0.986565
0.000162774
0.988429
-0.000131751
0.990341
-0.000356599
0.9923
-0.000506353
0.994307
-0.000577087
1.00621
-0.000566154
0.9166
-0.000491627
0.83484
-0.000368172
0.760264
-0.000209822
0.692255
-2.87041e-05
0.630249
0.000164194
0.573728
0.000357926
0.522218
0.000543879
0.475284
0.00071173
0.432528
0.00085493
0.393585
0.000964493
0.358121
0.00103548
0.32583
0.00106206
0.296434
0.00104091
0.269675
0.000970151
0.245321
0.000849262
0.223157
0.000680923
0.202989
0.0004663
0.184637
0.000209343
0.16794
0.153047
0.000898635
0.983664
0.000137472
0.00020324
0.975524
-0.000445852
0.977021
-0.00105093
0.978562
-0.00161143
0.980147
-0.00212515
0.981774
-0.00258871
0.983445
-0.00299893
0.98516
-0.00335159
0.986918
-0.00364313
0.988721
-0.0038691
0.990567
-0.00402575
0.992457
-0.00410836
0.99439
-0.00411291
1.00622
-0.00404418
0.916531
-0.00391939
0.834716
-0.00375253
0.760098
-0.00355628
0.692059
-0.0033404
0.630033
-0.0031135
0.573501
-0.0028815
0.521986
-0.00264957
0.475052
-0.00242008
0.432298
-0.00219561
0.393359
-0.00197585
0.357901
-0.00176125
0.325615
-0.00155068
0.296222
-0.00134252
0.269466
-0.00113583
0.245114
-0.000928936
0.22295
-0.000720571
0.202781
-0.000510385
0.184428
-0.000298536
0.167729
0.152749
-0.00238892
0.982637
0.00341145
-0.00292268
0.976056
-0.00341462
0.977513
-0.00386285
0.979011
-0.00426533
0.98055
-0.00461952
0.982129
-0.00492232
0.983748
-0.00517049
0.985408
-0.00536033
0.987109
-0.00548848
0.988849
-0.00555077
0.99063
-0.00554372
0.99245
-0.00546307
0.99431
-0.00530321
1.00606
-0.00508566
0.916314
-0.0048259
0.834456
-0.00453653
0.759808
-0.004228
0.691751
-0.00390924
0.629715
-0.00358624
0.573179
-0.00326535
0.521665
-0.00294877
0.474736
-0.00264124
0.43199
-0.00234244
0.393062
-0.00205601
0.357614
-0.00178094
0.32534
-0.00151927
0.29596
-0.00127087
0.269217
-0.00103631
0.244878
-0.00081568
0.222728
-0.000607952
0.202572
-0.000413957
0.184232
-0.000233258
0.167547
0.152516
-0.00510178
0.981679
0.00605506
-0.00549904
0.976453
-0.00585599
0.97787
-0.0061697
0.979325
-0.00643771
0.980818
-0.0066568
0.982348
-0.00682385
0.983916
-0.00693565
0.98552
-0.00698871
0.987162
-0.00697971
0.98884
-0.00690496
0.990555
-0.00676097
0.992306
-0.00654374
0.994093
-0.0062463
1.00576
-0.00590414
0.915972
-0.00553106
0.834083
-0.00513856
0.759416
-0.0047361
0.691348
-0.00433156
0.62931
-0.00393097
0.572778
-0.00353944
0.521273
-0.00316072
0.474357
-0.00279767
0.431627
-0.00245256
0.392716
-0.00212651
0.357287
-0.00182053
0.325033
-0.00153502
0.295674
-0.00126923
0.268951
-0.00102324
0.244631
-0.00079565
0.2225
-0.000585581
0.202362
-0.000391928
0.184039
-0.000214001
0.167369
0.152302
-0.00597167
0.980635
0.00701231
-0.00631333
0.976794
-0.00662305
0.978179
-0.00689182
0.979594
-0.00711516
0.981042
-0.00728927
0.982523
-0.00741119
0.984038
-0.00747767
0.985587
-0.0074856
0.98717
-0.00743185
0.988787
-0.00731297
0.990437
-0.00712564
0.992119
-0.00686623
0.993834
-0.00652722
1.00542
-0.00614823
0.915593
-0.00574212
0.833677
-0.00531994
0.758994
-0.00488987
0.690919
-0.00445987
0.62888
-0.00403443
0.572353
-0.00361975
0.520858
-0.00321731
0.473955
-0.0028324
0.431241
-0.00246457
0.392349
-0.00211844
0.356941
-0.00179296
0.324709
-0.00149112
0.295372
-0.00121278
0.268672
-0.000958985
0.244376
-0.00072959
0.222269
-0.000523702
0.202155
-0.000341354
0.183855
-0.000181465
0.167208
0.15212
-0.0112174
0.979491
0.0123591
-0.0114108
0.976987
-0.0115504
0.978319
-0.0116397
0.979684
-0.0116798
0.981082
-0.0116687
0.982512
-0.0116046
0.983974
-0.0114846
0.985467
-0.0113061
0.986992
-0.0110662
0.988547
-0.0107619
0.990132
-0.0103901
0.991747
-0.00994744
0.993391
-0.00942481
1.0049
-0.00888042
0.915049
-0.00832505
0.833122
-0.00776789
0.758436
-0.00721543
0.690366
-0.00667348
0.628338
-0.00614507
0.571825
-0.00563315
0.520346
-0.00513818
0.47346
-0.0046606
0.430763
-0.00419901
0.391887
-0.00375193
0.356493
-0.00331688
0.324273
-0.00289188
0.294946
-0.0024737
0.268254
-0.00206091
0.243963
-0.00165091
0.221859
-0.00124286
0.201747
-0.000835729
0.183448
-0.00042986
0.166802
0.15169
-0.0151298
0.978268
0.01635
-0.0149743
0.976831
-0.0147689
0.978113
-0.0145144
0.97943
-0.0142102
0.980778
-0.0138542
0.982156
-0.0134445
0.983564
-0.0129784
0.985001
-0.0124536
0.986467
-0.0118672
0.987961
-0.0112169
0.989482
-0.0104996
0.99103
-0.00971284
0.992604
-0.00884436
1.00403
-0.00798764
0.914192
-0.00715053
0.832285
-0.00634011
0.757626
-0.00556054
0.689587
-0.0048172
0.627594
-0.0041122
0.571121
-0.00345108
0.519684
-0.00283486
0.472845
-0.00226999
0.430198
-0.00175705
0.391375
-0.0013028
0.356038
-0.000907553
0.323879
-0.000576147
0.294614
-0.000309108
0.267987
-0.000107922
0.243761
2.83412e-05
0.221721
0.000101826
0.201672
0.000115152
0.183434
7.25337e-05
0.166843
0.151763
-0.0159556
0.977211
0.0170102
-0.0159527
0.976828
-0.015921
0.978081
-0.0158482
0.979357
-0.0157296
0.98066
-0.0155609
0.981988
-0.0153399
0.983343
-0.0150638
0.984725
-0.0147305
0.986134
-0.0143376
0.987568
-0.013883
0.989028
-0.0133644
0.990512
-0.0127797
0.99202
-0.0121196
1.00337
-0.0114569
0.913529
-0.0107999
0.831628
-0.0101558
0.756982
-0.0095278
0.688959
-0.00891877
0.626985
-0.00832757
0.57053
-0.00775347
0.51911
-0.00719224
0.472284
-0.00664052
0.429646
-0.00609245
0.390827
-0.00554344
0.355489
-0.00498784
0.323323
-0.0044219
0.294047
-0.00384114
0.267406
-0.00324406
0.243163
-0.00262864
0.221106
-0.00199573
0.201039
-0.00134616
0.182784
-0.00068279
0.16618
0.15108
-0.0204236
0.975685
0.0219478
-0.0200064
0.97641
-0.0195407
0.977615
-0.0190259
0.978843
-0.018461
0.980095
-0.0178439
0.981371
-0.0171733
0.982673
-0.0164465
0.983999
-0.0156623
0.98535
-0.0148184
0.986724
-0.0139131
0.988122
-0.0129448
0.989544
-0.0119122
0.990987
-0.0108028
1.00226
-0.00973607
0.912462
-0.00871786
0.83061
-0.00775376
0.756017
-0.00684579
0.688052
-0.00599742
0.626136
-0.00520786
0.569741
-0.00447991
0.518382
-0.00381064
0.471615
-0.00320273
0.429037
-0.00265204
0.390277
-0.00216099
0.354997
-0.00172498
0.322888
-0.00134482
0.293667
-0.00101702
0.267078
-0.000740159
0.242886
-0.000510932
0.220876
-0.000326111
0.200853
-0.000182365
0.182639
-7.58412e-05
0.166072
0.151004
-0.0267881
0.974001
0.0284702
-0.0260291
0.975651
-0.0252117
0.976797
-0.0243396
0.977971
-0.0234147
0.97917
-0.022436
0.980393
-0.0214027
0.981639
-0.020313