/*--------------------------------*- C++ -*----------------------------------*\
| =========                 |                                                 |
| \\      /  F ield         | OpenFOAM: The Open Source CFD Toolbox           |
|  \\    /   O peration     | Version:  2.3.0                                 |
|   \\  /    A nd           | Web:      www.OpenFOAM.org                      |
|    \\/     M anipulation  |                                                 |
\*---------------------------------------------------------------------------*/
FoamFile
{
    version     2.0;
    format      ascii;
    class       volVectorField;
    location    "0";
    object      U;
}
// * * * * * * * * * * * * * * * * * * * * * * * * * * * * * * * * * * * * * //

dimensions      [0 1 -1 0 0 0 0];

internalField   nonuniform List<vector> 
28552
(
(98.065 9.10535e-20 -2.72929)
(97.9517 -1.91748e-19 -3.35241)
(97.7701 -7.90591e-20 -4.10528)
(97.6315 -3.65218e-20 -4.67558)
(97.5064 7.77492e-20 -5.19392)
(97.3849 1.16312e-19 -5.71563)
(97.2649 -3.9851e-20 -6.26687)
(97.1473 -4.24119e-20 -6.86265)
(97.0348 1.39859e-21 -7.51391)
(96.9314 -9.5311e-20 -8.23071)
(96.8426 6.33059e-20 -9.0231)
(96.7766 -7.9938e-20 -9.90221)
(96.7439 8.01937e-20 -10.8802)
(96.7599 -6.79278e-21 -11.9754)
(96.8399 -8.72498e-20 -13.1483)
(96.9888 5.72711e-21 -14.3272)
(97.2085 7.28571e-23 -15.4989)
(97.4978 -4.77032e-21 -16.6502)
(97.8536 -3.68526e-20 -17.7682)
(98.2701 3.81663e-21 -18.8414)
(98.7392 0 -19.8596)
(99.2518 -1.4422e-21 -20.8149)
(99.7974 -2.37791e-20 -21.7015)
(100.365 2.13718e-20 -22.5156)
(100.944 -9.83635e-21 -23.2556)
(101.522 9.17011e-23 -23.9218)
(102.089 -1.12777e-20 -24.516)
(102.633 -2.81139e-22 -25.0416)
(103.141 1.11446e-20 -25.5038)
(103.599 0 -25.9099)
(103.993 0 -26.2692)
(104.304 0 -26.594)
(104.517 2.79598e-21 -26.8978)
(105.474 -1.53735e-23 -27.2639)
(98.0747 4.21108e-20 -4.07468)
(98.5493 -1.15283e-19 -4.4554)
(98.3558 -1.96816e-19 -4.75939)
(98.2142 -1.16371e-19 -5.15671)
(98.0994 8.09642e-20 -5.60253)
(97.9993 0 -6.08712)
(97.9086 -4.8287e-20 -6.61241)
(97.8263 -4.81945e-20 -7.1842)
(97.7535 8.01131e-20 -7.80959)
(97.6934 1.4725e-20 -8.49655)
(97.6511 8.04767e-20 -9.25377)
(97.6339 -8.07075e-20 -10.0908)
(97.6517 9.35494e-20 -11.0182)
(97.7187 -8.2222e-20 -12.0523)
(97.8471 -8.17278e-20 -13.155)
(98.0367 4.1508e-20 -14.2586)
(98.2881 0 -15.3514)
(98.5995 4.06121e-21 -16.4216)
(98.9673 3.67729e-21 -17.4582)
(99.3855 -2.12822e-20 -18.4513)
(99.8469 -2.1433e-20 -19.3926)
(100.343 0 -20.2759)
(100.864 0 -21.0969)
(101.4 0 -21.8535)
(101.943 0 -22.5457)
(102.481 1.02776e-20 -23.1757)
(103.007 -6.71727e-22 -23.748)
(103.512 2.84152e-22 -24.2694)
(103.987 5.87008e-21 -24.75)
(104.425 0 -25.203)
(104.82 0 -25.6459)
(105.167 0 -26.1011)
(105.461 7.10706e-23 -26.5958)
(106.006 -1.44244e-21 -27.1706)
(98.6734 -3.2871e-20 -4.14528)
(98.9794 1.63884e-19 -4.65224)
(98.892 -8.14536e-20 -4.96928)
(98.8061 3.19071e-20 -5.34177)
(98.7283 1.11742e-19 -5.76196)
(98.6596 5.30494e-20 -6.22616)
(98.6001 -1.1022e-19 -6.73474)
(98.5504 1.38181e-20 -7.29088)
(98.5125 1.33096e-20 -7.89952)
(98.4895 0 -8.56689)
(98.4864 -8.29505e-20 -9.30019)
(98.5098 -1.14885e-20 -10.1076)
(98.5693 -1.07678e-20 -10.998)
(98.6778 -8.29842e-20 -11.9861)
(98.8446 0 -13.0341)
(99.0658 4.19035e-20 -14.0775)
(99.3409 -3.76787e-21 -15.1059)
(99.6678 -6.7754e-21 -16.1089)
(100.042 1.84164e-20 -17.077)
(100.459 1.01934e-22 -18.0021)
(100.91 1.27884e-21 -18.8775)
(101.389 1.0405e-21 -19.6986)
(101.887 0 -20.4623)
(102.396 0 -21.1677)
(102.909 6.79786e-22 -21.8156)
(103.418 -5.01722e-21 -22.409)
(103.918 0 -22.9522)
(104.405 5.24691e-21 -23.4514)
(104.878 -5.18565e-22 -23.9144)
(105.337 -3.14037e-21 -24.3502)
(105.787 -2.14868e-22 -24.7688)
(106.237 -7.62609e-23 -25.181)
(106.703 1.45228e-21 -25.5981)
(107.266 -1.47348e-21 -26.0264)
(99.7372 4.18605e-20 -4.21332)
(99.4776 1.24651e-19 -4.72103)
(99.4308 0 -5.06408)
(99.3856 1.51546e-19 -5.43749)
(99.3447 2.61173e-20 -5.84825)
(99.3101 1.37576e-19 -6.29938)
(99.2838 1.22842e-20 -6.79346)
(99.2675 5.37614e-20 -7.33375)
(99.2639 5.33159e-20 -7.9245)
(99.2765 0 -8.57091)
(99.3101 -4.1552e-20 -9.27906)
(99.3713 5.18387e-20 -10.0558)
(99.4689 5.57624e-20 -10.9088)
(99.615 4.12902e-21 -11.851)
(99.816 4.25581e-20 -12.8452)
(100.065 0 -13.8303)
(100.36 4.29352e-20 -14.7968)
(100.7 0 -15.7357)
(101.079 1.92873e-20 -16.639)
(101.493 1.97333e-20 -17.4998)
(101.935 2.18939e-20 -18.3131)
(102.398 -7.47074e-22 -19.075)
(102.876 1.04692e-20 -19.7836)
(103.361 -5.20191e-22 -20.4384)
(103.849 5.61383e-21 -21.0401)
(104.333 -5.30562e-21 -21.5907)
(104.81 0 -22.0928)
(105.279 5.69805e-21 -22.549)
(105.738 -1.328e-22 -22.961)
(106.189 -2.95485e-21 -23.329)
(106.636 -2.86913e-21 -23.6497)
(107.081 1.45427e-21 -23.9152)
(107.533 1.45835e-21 -24.1111)
(108.025 -1.46614e-21 -24.2311)
(100.897 -2.46382e-22 -4.45591)
(99.9714 8.42394e-20 -4.77828)
(99.9644 -4.22528e-20 -5.09914)
(99.9563 -2.2176e-22 -5.46157)
(99.9503 -4.22894e-20 -5.86244)
(99.9492 -2.03815e-22 -6.30219)
(99.9555 -4.23429e-20 -6.78288)
(99.9719 8.45755e-20 -7.30751)
(100.001 5.29476e-20 -7.87987)
(100.048 -3.22929e-20 -8.50451)
(100.116 4.24012e-20 -9.18664)
(100.212 4.24986e-20 -9.93212)
(100.344 -1.10383e-22 -10.7475)
(100.524 4.28524e-20 -11.644)
(100.755 -3.62935e-21 -12.5855)
(101.028 1.51738e-20 -13.514)
(101.341 4.33337e-20 -14.4212)
(101.691 5.12303e-21 -15.299)
(102.073 4.53063e-21 -16.1407)
(102.483 1.97935e-21 -16.9408)
(102.915 1.10484e-20 -17.6951)
(103.364 0 -18.4007)
(103.822 1.11762e-20 -19.0562)
(104.286 -5.51476e-22 -19.6612)
(104.749 4.72496e-21 -20.2164)
(105.207 -3.80915e-22 -20.7234)
(105.657 3.21751e-22 -21.1839)
(106.097 2.55144e-22 -21.6003)
(106.524 2.11513e-22 -21.9749)
(106.936 1.60383e-22 -22.3109)
(107.331 -2.90251e-21 -22.6121)
(107.705 1.45678e-21 -22.8842)
(108.053 0 -23.1355)
(108.54 -1.469e-21 -23.4526)
(102.105 -2.14903e-20 -4.44254)
(100.472 6.37286e-20 -4.7059)
(100.495 -2.11771e-20 -5.04789)
(100.518 -5.35099e-20 -5.41403)
(100.543 -2.11841e-20 -5.81054)
(100.573 -4.87091e-22 -6.24124)
(100.61 -3.26047e-20 -6.70943)
(100.657 3.29927e-20 -7.21846)
(100.718 4.30297e-23 -7.77199)
(100.796 -2.14132e-20 -8.37413)
(100.896 -8.28842e-21 -9.02945)
(101.024 0 -9.743)
(101.188 -4.30686e-20 -10.5203)
(101.399 4.32044e-20 -11.3713)
(101.657 -2.16941e-20 -12.2607)
(101.951 1.90604e-20 -13.134)
(102.278 -4.7934e-21 -13.9835)
(102.635 3.3944e-23 -14.8025)
(103.019 -9.16562e-21 -15.5853)
(103.425 -1.10565e-20 -16.3272)
(103.847 1.11368e-20 -17.025)
(104.281 -4.97658e-21 -17.6764)
(104.721 -1.53411e-23 -18.2806)
(105.162 5.21786e-21 -18.8375)
(105.601 -3.54403e-22 -19.3478)
(106.032 -2.82684e-21 -19.8129)
(106.453 2.19429e-22 -20.2343)
(106.861 0 -20.6135)
(107.254 0 -20.9523)
(107.629 1.06262e-22 -21.2519)
(107.988 1.43728e-21 -21.5136)
(108.329 -4.53639e-23 -21.7383)
(108.654 0 -21.9268)
(109.452 -7.34031e-22 -22.2302)
(103.366 2.18912e-20 -4.46486)
(100.977 3.1663e-20 -4.61562)
(101.022 4.18386e-20 -4.94774)
(101.07 -1.07147e-20 -5.30767)
(101.122 3.21612e-20 -5.69691)
(101.18 1.07295e-20 -6.11789)
(101.245 -1.07383e-20 -6.57351)
(101.322 0 -7.0669)
(101.412 -1.076e-20 -7.60146)
(101.52 1.07936e-20 -8.1809)
(101.649 -1.07899e-20 -8.80922)
(101.807 -7.0712e-21 -9.49081)
(102 -1.40339e-20 -10.2303)
(102.238 5.96989e-21 -11.0364)
(102.52 2.17992e-20 -11.875)
(102.831 -1.08864e-20 -12.6947)
(103.17 5.44122e-21 -13.4889)
(103.534 -1.89565e-21 -14.2517)
(103.918 -1.66237e-20 -14.9783)
(104.318 -1.26374e-20 -15.6649)
(104.73 -1.2559e-21 -16.3089)
(105.149 -3.94072e-21 -16.9087)
(105.571 1.89128e-21 -17.4641)
(105.991 7.08158e-21 -17.9754)
(106.406 3.41685e-22 -18.4439)
(106.811 -2.59038e-21 -18.8712)
(107.205 1.42737e-21 -19.2597)
(107.583 -1.92023e-22 -19.6114)
(107.943 5.78377e-22 -19.9285)
(108.282 0 -20.2128)
(108.598 1.45486e-21 -20.4655)
(108.888 4.34168e-22 -20.6874)
(109.151 4.23722e-23 -20.8787)
(110.334 -7.39332e-22 -21.2898)
(104.626 1.11392e-20 -4.39854)
(101.466 -2.9585e-20 -4.46316)
(101.535 -9.17383e-21 -4.79309)
(101.606 -9.42651e-21 -5.14744)
(101.683 1.07805e-20 -5.52864)
(101.767 -1.07909e-20 -5.93911)
(101.859 -9.45483e-21 -6.38154)
(101.962 -7.87766e-21 -6.85879)
(102.079 -2.71833e-20 -7.37393)
(102.214 -2.37653e-20 -7.93024)
(102.372 -2.43485e-20 -8.53126)
(102.556 -4.91252e-21 -9.18071)
(102.775 -1.38714e-20 -9.8825)
(103.038 -2.65795e-21 -10.6443)
(103.34 1.36679e-21 -11.4332)
(103.667 -9.64571e-21 -12.201)
(104.016 6.90393e-21 -12.9421)
(104.384 -2.4701e-21 -13.6512)
(104.767 -7.09701e-21 -14.3244)
(105.16 6.95302e-22 -14.9586)
(105.561 5.27864e-22 -15.5517)
(105.965 4.19453e-21 -16.1027)
(106.368 2.82998e-21 -16.6116)
(106.767 1.4205e-21 -17.0792)
(107.16 0 -17.5071)
(107.543 0 -17.8979)
(107.915 1.70082e-21 -18.2547)
(108.273 3.11032e-23 -18.5812)
(108.617 7.22927e-22 -18.8816)
(108.944 0 -19.1606)
(109.253 0 -19.4233)
(109.544 2.55986e-22 -19.6752)
(109.814 1.27174e-23 -19.9215)
(111.587 -2.14648e-23 -20.5174)
(105.892 -7.50168e-21 -4.26204)
(101.94 -1.69216e-20 -4.26565)
(102.028 -8.22573e-21 -4.5901)
(102.122 1.35117e-21 -4.93706)
(102.222 7.82419e-21 -5.30893)
(102.329 -3.29308e-21 -5.7079)
(102.445 1.35535e-21 -6.13634)
(102.573 0 -6.59674)
(102.716 9.47097e-21 -7.09182)
(102.876 1.36094e-21 -7.62445)
(103.059 5.97355e-21 -8.19767)
(103.268 1.77287e-20 -8.81464)
(103.511 0 -9.4786)
(103.796 0 -10.1963)
(104.117 1.37711e-21 -10.936)
(104.457 -5.1756e-22 -11.6531)
(104.814 -2.4756e-22 -12.3424)
(105.185 -6.95539e-22 -12.9997)
(105.565 -1.30366e-21 -13.6216)
(105.951 -5.95322e-21 -14.2057)
(106.34 -7.03119e-22 -14.7504)
(106.728 3.52834e-22 -15.2548)
(107.112 -7.11338e-22 -15.7189)
(107.49 4.00383e-23 -16.1433)
(107.858 -3.7895e-23 -16.5292)
(108.217 -7.96085e-22 -16.8783)
(108.564 -1.73343e-21 -17.1929)
(108.901 -1.7999e-22 -17.4755)
(109.226 7.16687e-22 -17.7287)
(109.54 9.0183e-23 -17.9554)
(109.844 -6.6206e-22 -18.1577)
(110.139 0 -18.3378)
(110.424 0 -18.4974)
(112.826 -4.66169e-23 -19.0587)
(107.073 2.25752e-20 -4.17653)
(102.385 2.94787e-20 -4.04628)
(102.497 2.1556e-20 -4.35621)
(102.613 0 -4.69244)
(102.735 2.89469e-20 -5.05351)
(102.864 1.7804e-20 -5.44013)
(103.003 2.16367e-20 -5.85396)
(103.154 1.51074e-20 -6.29704)
(103.32 2.64087e-20 -6.77169)
(103.504 2.17176e-20 -7.28036)
(103.709 2.17515e-20 -7.82563)
(103.941 3.27434e-20 -8.41014)
(104.206 0 -9.03655)
(104.51 0 -9.71071)
(104.848 0 -10.4025)
(105.2 0 -11.0703)
(105.564 -1.55303e-21 -11.7098)
(105.936 -1.32111e-21 -12.3176)
(106.314 -1.19159e-21 -12.8911)
(106.693 4.54204e-21 -13.4284)
(107.071 0 -13.9284)
(107.443 0 -14.3907)
(107.808 0 -14.8152)
(108.162 5.24511e-22 -15.2021)
(108.504 -2.85976e-21 -15.5521)
(108.831 -3.15695e-21 -15.866)
(109.144 -1.43325e-21 -16.145)
(109.443 0 -16.3904)
(109.727 5.45195e-22 -16.6041)
(109.999 -1.15696e-22 -16.7883)
(110.26 -7.23759e-22 -16.9461)
(110.512 0 -17.081)
(110.757 7.21129e-22 -17.1973)
(113.74 -7.01976e-22 -17.7891)
(108.207 1.5725e-20 -3.78232)
(102.817 2.16345e-20 -3.71953)
(102.945 2.81987e-20 -4.04196)
(103.079 -7.74706e-23 -4.37581)
(103.22 1.56325e-20 -4.72806)
(103.37 2.7663e-20 -5.10218)
(103.53 7.06599e-20 -5.50058)
(103.702 2.17829e-20 -5.92534)
(103.889 1.6618e-20 -6.37854)
(104.094 1.70388e-20 -6.8623)
(104.32 2.65024e-20 -7.3788)
(104.573 2.61088e-20 -7.93024)
(104.857 0 -8.51874)
(105.179 0 -9.14943)
(105.531 4.55297e-20 -9.79373)
(105.894 2.33887e-20 -10.4132)
(106.263 0 -11.0044)
(106.637 0 -11.5646)
(107.012 9.53421e-22 -12.092)
(107.385 1.19896e-20 -12.5855)
(107.753 6.94464e-22 -13.0448)
(108.113 5.36665e-22 -13.4699)
(108.462 0 -13.8616)
(108.798 -3.89537e-22 -14.2206)
(109.116 -3.42638e-21 -14.5478)
(109.417 -3.05624e-21 -14.8438)
(109.696 0 -15.1087)
(109.953 0 -15.3423)
(110.185 -2.85009e-21 -15.5435)
(110.392 4.90719e-23 -15.7107)
(110.574 -2.42126e-23 -15.8416)
(110.729 -2.86335e-26 -15.9338)
(110.859 -7.40189e-22 -15.985)
(114.429 -7.49703e-22 -16.5627)
(109.328 -7.21259e-21 -3.70529)
(103.232 -5.68013e-20 -3.47271)
(103.374 -6.68145e-21 -3.76277)
(103.525 4.3143e-20 -4.07941)
(103.684 3.67698e-20 -4.41824)
(103.852 4.33315e-20 -4.77871)
(104.03 4.94382e-20 -5.16171)
(104.222 4.33446e-20 -5.56865)
(104.428 0 -6.00113)
(104.653 4.3471e-20 -6.46091)
(104.898 0 -6.94976)
(105.17 0 -7.46945)
(105.471 0 -8.02169)
(105.809 2.06757e-21 -8.61091)
(106.174 4.60573e-20 -9.21011)
(106.545 2.2175e-20 -9.78385)
(106.919 0 -10.3294)
(107.294 1.4567e-21 -10.8448)
(107.667 -2.0945e-20 -11.3288)
(108.035 -9.93149e-21 -11.7808)
(108.396 1.05398e-21 -12.2013)
(108.747 0 -12.5912)
(109.087 0 -12.9522)
(109.414 0 -13.2866)
(109.727 -7.55006e-22 -13.5975)
(110.024 -6.505e-22 -13.8884)
(110.304 0 -14.1632)
(110.567 3.39314e-21 -14.4263)
(110.811 -2.8961e-21 -14.6819)
(111.035 -3.24531e-21 -14.9344)
(111.238 0 -15.1878)
(111.419 0 -15.4457)
(111.577 -1.254e-21 -15.7109)
(115.918 1.38759e-22 -16.6475)
(110.216 -6.2958e-21 -3.34013)
(103.596 -4.32328e-20 -3.0948)
(103.763 0 -3.39046)
(103.934 2.06435e-22 -3.70025)
(104.11 4.33917e-20 -4.02712)
(104.296 4.34483e-20 -4.37257)
(104.492 5.18379e-21 -4.73785)
(104.7 4.84488e-20 -5.12424)
(104.924 0 -5.53311)
(105.166 4.37161e-20 -5.96586)
(105.428 0 -6.42392)
(105.716 0 -6.90866)
(106.032 0 -7.42139)
(106.383 0 -7.96586)
(106.759 -4.54766e-20 -8.51682)
(107.137 5.10257e-23 -9.04204)
(107.514 1.16504e-21 -9.53947)
(107.889 2.10874e-20 -10.0076)
(108.258 -2.32837e-20 -10.4458)
(108.621 -3.35067e-20 -10.8535)
(108.973 7.3817e-22 -11.2311)
(109.315 1.18134e-20 -11.5792)
(109.644 1.12332e-20 -11.8986)
(109.961 -1.12611e-20 -12.1907)
(110.265 0 -12.457)
(110.558 0 -12.6993)
(110.838 2.97226e-22 -12.9199)
(111.109 3.33616e-21 -13.121)
(111.372 2.82686e-21 -13.305)
(111.628 -3.02037e-21 -13.4744)
(111.878 0 -13.6313)
(112.124 1.33481e-21 -13.7778)
(112.368 1.44974e-21 -13.9161)
(117.278 -1.38951e-23 -14.6525)
(110.982 5.65728e-21 -2.94546)
(103.959 -8.60619e-20 -2.71519)
(104.137 8.61634e-20 -3.00344)
(104.32 -4.33207e-20 -3.30379)
(104.512 0 -3.61823)
(104.712 -8.64919e-20 -3.94832)
(104.923 0 -4.29538)
(105.147 8.67407e-20 -4.66063)
(105.386 8.68785e-20 -5.04524)
(105.643 -1.92232e-21 -5.45037)
(105.92 -1.75347e-21 -5.87713)
(106.222 0 -6.32656)
(106.551 0 -6.79957)
(106.914 0 -7.29935)
(107.298 -4.42445e-20 -7.80245)
(107.682 0 -8.27979)
(108.061 0 -8.72999)
(108.435 2.23116e-20 -9.15219)
(108.802 0 -9.54609)
(109.158 -2.24354e-20 -9.9117)
(109.502 0 -10.2494)
(109.832 1.16651e-20 -10.5596)
(110.147 1.15875e-20 -10.8427)
(110.445 -1.1331e-20 -11.0992)
(110.727 0 -11.3292)
(110.991 0 -11.5327)
(111.237 -5.66794e-21 -11.7098)
(111.465 0 -11.86)
(111.676 2.86714e-21 -11.9832)
(111.871 2.82322e-21 -12.0791)
(112.049 2.87294e-21 -12.1477)
(112.213 4.32405e-21 -12.1892)
(112.362 1.43138e-21 -12.2042)
(117.489 -4.58923e-24 -12.7597)
(111.642 0 -2.61642)
(104.303 -2.96486e-22 -2.34292)
(104.491 8.652e-20 -2.61788)
(104.687 -5.01022e-21 -2.90647)
(104.891 8.16798e-20 -3.20822)
(105.105 -8.68863e-20 -3.52369)
(105.329 8.67022e-20 -3.8537)
(105.567 1.74004e-19 -4.1992)
(105.82 8.73164e-20 -4.56114)
(106.09 9.10624e-20 -4.94044)
(106.381 3.60246e-21 -5.33794)
(106.695 0 -5.75439)
(107.036 -1.61174e-21 -6.19038)
(107.408 -8.78953e-20 -6.64857)
(107.8 1.30677e-21 -7.1072)
(108.187 -4.42196e-20 -7.54013)
(108.568 -1.11788e-21 -7.94662)
(108.941 3.84337e-23 -8.3264)
(109.304 8.77687e-22 -8.67983)
(109.656 -2.15286e-20 -9.00763)
(109.994 7.09206e-22 -9.31098)
(110.317 1.05684e-20 -9.5913)
(110.625 1.06907e-20 -9.85026)
(110.916 5.28702e-22 -10.0897)
(111.189 -1.08597e-20 -10.3115)
(111.445 0 -10.5177)
(111.681 -6.06198e-21 -10.7102)
(111.899 5.38957e-21 -10.891)
(112.098 0 -11.0616)
(112.277 1.34635e-23 -11.2238)
(112.438 2.86685e-21 -11.3786)
(112.58 2.8698e-21 -11.5271)
(112.704 -8.42278e-23 -11.6702)
(118.138 -2.35476e-23 -12.3866)
(112.076 0 -2.25416)
(104.62 8.64429e-20 -1.93756)
(104.822 0 -2.20473)
(105.029 4.71309e-21 -2.48143)
(105.243 9.13022e-20 -2.76826)
(105.468 0 -3.06602)
(105.703 8.70942e-20 -3.37555)
(105.952 8.92451e-20 -3.69765)
(106.215 1.86721e-21 -4.03313)
(106.497 -1.57122e-21 -4.38268)
(106.798 8.58865e-20 -4.74691)
(107.121 0 -5.12629)
(107.469 8.65028e-20 -5.52111)
(107.848 -8.97264e-20 -5.93344)
(108.244 0 -6.34346)
(108.632 -4.55591e-20 -6.72803)
(109.012 2.85584e-23 -7.0869)
(109.381 1.72402e-21 -7.42016)
(109.739 7.58201e-22 -7.72844)
(110.084 -4.49005e-20 -8.01264)
(110.415 2.24744e-20 -8.27401)
(110.731 1.12978e-20 -8.514)
(111.033 1.18095e-20 -8.73421)
(111.32 4.10579e-22 -8.93637)
(111.593 -1.13741e-20 -9.12228)
(111.851 3.23484e-22 -9.29383)
(112.096 -1.21701e-23 -9.45286)
(112.327 5.49588e-21 -9.60123)
(112.547 0 -9.74063)
(112.755 -5.73043e-21 -9.87262)
(112.952 1.19501e-22 -9.99857)
(113.14 7.56401e-23 -10.1196)
(113.318 2.87334e-21 -10.2366)
(118.859 0 -10.8324)
(112.274 2.3507e-23 -1.74107)
(104.923 2.15413e-21 -1.48164)
(105.13 -2.09234e-21 -1.74576)
(105.343 8.4755e-20 -2.01215)
(105.565 0 -2.28406)
(105.797 0 -2.56342)
(106.041 8.71635e-20 -2.85145)
(106.299 1.64498e-21 -3.14911)
(106.571 1.52246e-21 -3.45711)
(106.861 -8.77659e-20 -3.77604)
(107.17 8.66265e-20 -4.10629)
(107.5 8.68762e-20 -4.44813)
(107.854 8.84035e-20 -4.80155)
(108.237 -8.85543e-20 -5.16817)
(108.634 -8.71495e-22 -5.53005)
(109.021 -4.52774e-20 -5.86708)
(109.397 -6.59377e-22 -6.1793)
(109.76 -5.48643e-22 -6.46712)
(110.109 -2.19731e-20 -6.73122)
(110.444 -2.21501e-20 -6.9725)
(110.764 4.51633e-20 -7.19195)
(111.067 0 -7.39067)
(111.355 2.15448e-22 -7.56962)
(111.626 1.56095e-22 -7.7298)
(111.88 0 -7.87195)
(112.119 -5.7891e-21 -7.99681)
(112.341 -4.75034e-23 -8.10493)
(112.548 2.97919e-23 -8.19689)
(112.739 3.51065e-24 -8.27316)
(112.915 -5.7391e-21 -8.33428)
(113.077 3.30095e-23 -8.38077)
(113.225 2.29346e-23 -8.41323)
(113.36 5.748e-21 -8.43249)
(118.619 -1.51863e-21 -8.80679)
(112.34 0 -1.36585)
(105.232 0 -1.08557)
(105.436 -2.08127e-21 -1.33432)
(105.651 1.74207e-19 -1.58557)
(105.877 8.72361e-20 -1.84059)
(106.115 -1.81178e-21 -2.10073)
(106.365 1.75082e-19 -2.36703)
(106.629 8.77309e-20 -2.64032)
(106.908 1.56009e-21 -2.92119)
(107.204 9.10134e-20 -3.21008)
(107.519 -1.8674e-23 -3.50721)
(107.854 1.74508e-19 -3.81265)
(108.212 -2.30114e-21 -4.12621)
(108.597 -9.00174e-20 -4.4491)
(108.993 0 -4.76534)
(109.376 -8.95402e-20 -5.05767)
(109.746 0 -5.32651)
(110.102 0 -5.57265)
(110.441 -2.25653e-20 -5.79705)
(110.765 2.26353e-20 -6.00093)
(111.071 -1.25858e-23 -6.18569)
(111.361 4.25261e-22 -6.35292)
(111.635 3.68901e-22 -6.50436)
(111.893 -3.33477e-22 -6.64192)
(112.135 -2.87175e-22 -6.76758)
(112.363 -5.72817e-21 -6.88336)
(112.576 2.23434e-22 -6.99138)
(112.778 3.76977e-22 -7.0935)
(112.967 1.54952e-22 -7.19151)
(113.145 -2.88198e-21 -7.28697)
(113.312 1.94515e-22 -7.38107)
(113.47 -6.94637e-24 -7.47482)
(113.618 2.89892e-21 -7.56903)
(118.504 -1.51429e-21 -7.96187)
(112.206 2.00844e-21 -0.931716)
(105.514 -8.53118e-20 -0.665343)
(105.715 -8.55393e-20 -0.894683)
(105.929 1.65959e-21 -1.12388)
(106.156 1.75273e-19 -1.35505)
(106.395 -1.58462e-21 -1.58948)
(106.648 -1.61817e-21 -1.82804)
(106.915 8.66875e-20 -2.07133)
(107.197 -1.28445e-21 -2.31975)
(107.497 -1.33907e-22 -2.57353)
(107.814 8.98801e-20 -2.83275)
(108.151 8.98701e-20 -3.09729)
(108.508 -8.9293e-20 -3.36681)
(108.891 0 -3.6422)
(109.282 -6.27608e-22 -3.90973)
(109.66 -4.59431e-22 -4.15509)
(110.021 0 -4.37907)
(110.366 0 -4.58261)
(110.694 2.82944e-22 -4.76672)
(111.004 2.29526e-20 -4.9324)
(111.295 -2.27868e-20 -5.08053)
(111.567 0 -5.21185)
(111.821 1.14613e-20 -5.32692)
(112.055 -1.14605e-20 -5.42609)
(112.271 -1.73393e-23 -5.50958)
(112.469 -5.76019e-21 -5.5775)
(112.649 5.76905e-21 -5.62998)
(112.812 -6.72564e-23 -5.66715)
(112.959 5.78557e-21 -5.68923)
(113.09 0 -5.69667)
(113.206 7.24337e-23 -5.69001)
(113.309 6.18626e-23 -5.67002)
(113.399 0 -5.63779)
(117.712 0 -5.7801)
(111.966 -1.81472e-21 -0.496536)
(105.774 -8.93664e-20 -0.281706)
(105.972 1.16054e-22 -0.486515)
(106.185 -8.95069e-20 -0.69378)
(106.411 1.72923e-19 -0.903515)
(106.652 8.67627e-20 -1.11599)
(106.906 1.21366e-22 -1.33148)
(107.175 0 -1.5502)
(107.459 -1.2991e-21 -1.77228)
(107.76 -9.13467e-20 -1.99773)
(108.078 8.80065e-20 -2.22644)
(108.415 -1.06542e-21 -2.45815)
(108.771 -9.06027e-20 -2.69245)
(109.15 0 -2.92993)
(109.536 0 -3.15885)
(109.906 9.05182e-20 -3.36724)
(110.259 4.54232e-20 -3.5563)
(110.595 0 -3.7275)
(110.913 0 -3.88243)
(111.214 -2.28894e-20 -4.0229)
(111.496 4.96731e-22 -4.15086)
(111.761 4.52365e-22 -4.26839)
(112.009 2.34436e-20 -4.37763)
(112.24 -1.15283e-20 -4.48073)
(112.457 -3.50618e-22 -4.57983)
(112.658 -5.7812e-21 -4.67689)
(112.846 5.50142e-21 -4.77373)
(113.021 5.55643e-21 -4.87182)
(113.183 2.08372e-22 -4.97234)
(113.334 1.76724e-22 -5.07614)
(113.474 0 -5.18364)
(113.604 2.81924e-21 -5.29496)
(113.724 -5.08733e-23 -5.41002)
(117.58 0 -5.69028)
(111.698 9.27536e-20 -0.0880311)
(105.996 0 0.0896166)
(106.194 1.76253e-19 -0.0864015)
(106.406 0 -0.265847)
(106.632 8.83707e-20 -0.448062)
(106.871 8.85375e-20 -0.632714)
(107.124 8.87155e-20 -0.819636)
(107.392 1.08019e-21 -1.00869)
(107.675 1.0033e-21 -1.19972)
(107.973 0 -1.39256)
(108.288 0 -1.58692)
(108.62 0 -1.78243)
(108.971 0 -1.97858)
(109.343 0 -2.17568)
(109.719 2.21992e-22 -2.36391)
(110.079 4.58076e-20 -2.5335)
(110.421 4.5718e-20 -2.68561)
(110.745 -1.16614e-22 -2.82139)
(111.051 2.28422e-20 -2.94194)
(111.338 -2.2957e-20 -3.04825)
(111.607 0 -3.14118)
(111.858 1.15702e-20 -3.2214)
(112.093 2.3123e-20 -3.28945)
(112.311 6.05563e-24 -3.34576)
(112.514 1.2549e-23 -3.39069)
(112.704 0 -3.42458)
(112.88 0 -3.44781)
(113.044 -8.61925e-24 -3.46082)
(113.198 -5.8312e-21 -3.4641)
(113.341 0 -3.45829)
(113.475 0 -3.44405)
(113.6 2.92626e-21 -3.42218)
(113.718 0 -3.39363)
(117.052 -1.51893e-21 -3.43065)
(111.412 -1.09556e-22 0.329977)
(106.183 8.83682e-20 0.458579)
(106.384 8.77288e-20 0.302878)
(106.596 -6.44131e-22 0.145198)
(106.821 0 -0.0145002)
(107.06 -5.66729e-22 -0.176024)
(107.312 -1.06328e-21 -0.339115)
(107.578 8.93684e-20 -0.50348)
(107.858 9.00377e-20 -0.668824)
(108.153 8.97975e-20 -0.834807)
(108.464 0 -1.00105)
(108.791 9.02743e-20 -1.16709)
(109.135 0 -1.33237)
(109.499 9.08098e-20 -1.49705)
(109.866 0 -1.65294)
(110.215 0 -1.79219)
(110.546 -1.76429e-22 -1.91614)
(110.858 -2.62591e-24 -2.02619)
(111.151 2.31233e-20 -2.1237)
(111.426 -1.11653e-22 -2.21004)
(111.681 2.31223e-20 -2.28647)
(111.918 6.62848e-23 -2.35415)
(112.138 -8.22999e-23 -2.41413)
(112.339 -5.65621e-23 -2.46729)
(112.523 -4.47341e-23 -2.5144)
(112.691 -5.90316e-21 -2.55605)
(112.842 5.80975e-21 -2.59276)
(112.978 -5.83717e-21 -2.62486)
(113.099 0 -2.65266)
(113.205 -8.88002e-24 -2.67639)
(113.298 -5.15188e-24 -2.69624)
(113.378 -2.93178e-21 -2.71239)
(113.447 -1.64567e-24 -2.72516)
(116.314 3.95531e-24 -2.78942)
(111.155 -9.31921e-20 0.742443)
(106.345 8.79216e-20 0.820616)
(106.545 -4.44022e-20 0.684929)
(106.757 4.44797e-20 0.548284)
(106.981 0 0.410337)
(107.218 4.46499e-20 0.271201)
(107.467 4.84881e-22 0.131152)
(107.73 9.04893e-20 -0.00943811)
(108.007 9.06348e-20 -0.15018)
(108.297 1.35455e-19 -0.29065)
(108.603 0 -0.430396)
(108.923 1.35775e-19 -0.568904)
(109.259 0 -0.705599)
(109.614 1.82132e-19 -0.84048)
(109.97 0 -0.966855)
(110.308 0 -1.07849)
(110.627 -2.00389e-22 -1.17674)
(110.928 -2.32205e-20 -1.26298)
(111.21 0 -1.33861)
(111.473 0 -1.40505)
(111.72 2.30265e-20 -1.46373)
(111.95 -2.33544e-20 -1.51615)
(112.165 -1.1627e-20 -1.5638)
(112.366 0 -1.60819)
(112.553 0 -1.6508)
(112.729 -1.16903e-20 -1.69303)
(112.894 5.84966e-21 -1.73615)
(113.05 7.16823e-23 -1.78126)
(113.196 6.21163e-23 -1.82919)
(113.335 -2.93926e-21 -1.88058)
(113.466 0 -1.93572)
(113.591 -2.94162e-21 -1.99471)
(113.709 0 -2.05755)
(116.272 1.50526e-21 -2.15256)
(110.926 0 1.08227)
(106.476 3.13417e-22 1.16101)
(106.676 5.70869e-23 1.05101)
(106.887 4.42824e-20 0.93808)
(107.11 0 0.823398)
(107.344 4.47367e-20 0.707693)
(107.591 0 0.59153)
(107.85 -1.92739e-22 0.475422)
(108.121 4.49031e-20 0.359853)
(108.406 4.51425e-20 0.245314)
(108.705 4.53099e-20 0.132298)
(109.017 4.53794e-20 0.0213434)
(109.344 4.55599e-20 -0.0869751)
(109.688 9.12837e-20 -0.192541)
(110.033 4.58315e-20 -0.290089)
(110.359 0 -0.374919)
(110.666 -1.44017e-23 -0.448219)
(110.953 -2.30746e-20 -0.511054)
(111.222 2.31557e-20 -0.564281)
(111.472 -9.44349e-25 -0.608552)
(111.704 0 -0.644285)
(111.919 -1.16417e-20 -0.671688)
(112.116 1.1658e-20 -0.690777)
(112.298 0 -0.701451)
(112.465 5.86636e-21 -0.703546)
(112.618 -5.83855e-21 -0.696866)
(112.758 7.89511e-24 -0.681342)
(112.886 7.23712e-24 -0.656918)
(113.003 -7.343e-24 -0.623725)
(113.11 -2.94597e-21 -0.582085)
(113.207 -2.946e-21 -0.532421)
(113.296 2.94858e-21 -0.47538)
(113.377 0 -0.41183)
(115.531 1.30622e-24 -0.33438)
(110.648 3.11539e-22 1.4172)
(106.575 3.14795e-22 1.50411)
(106.778 4.4311e-20 1.41064)
(106.989 -5.59163e-22 1.31545)
(107.211 -4.50807e-20 1.21925)
(107.443 0 1.12266)
(107.686 -4.49984e-20 1.0262)
(107.941 0 0.930397)
(108.208 4.5156e-20 0.835768)
(108.487 -4.51311e-20 0.74282)
(108.778 -4.0632e-23 0.652065)
(109.083 -1.55979e-22 0.564043)
(109.401 -1.15012e-22 0.479307)
(109.734 -3.03251e-24 0.398029)
(110.067 4.5949e-20 0.324157)
(110.382 -4.60672e-20 0.260931)
(110.678 0 0.20693)
(110.955 0 0.160777)
(111.214 2.31773e-20 0.121159)
(111.454 3.1363e-23 0.0868589)
(111.676 2.98216e-23 0.0567344)
(111.88 0 0.0297587)
(112.067 1.16984e-20 0.00498362)
(112.238 1.14662e-23 -0.0184196)
(112.394 5.84453e-21 -0.0411826)
(112.534 5.86761e-21 -0.0639331)
(112.659 0 -0.087182)
(112.771 5.87955e-21 -0.111306)
(112.87 5.09055e-24 -0.13655)
(112.956 3.20925e-25 -0.163063)
(113.031 -2.94333e-21 -0.190801)
(113.096 2.94891e-21 -0.219701)
(113.152 1.47677e-21 -0.249726)
(115.015 5.95522e-25 -0.276708)
(110.334 4.6079e-20 1.81907)
(106.655 6.00797e-23 1.86212)
(106.856 4.48056e-20 1.78011)
(107.066 -5.3319e-23 1.69988)
(107.286 -1.01524e-23 1.62044)
(107.515 2.33416e-23 1.54169)
(107.754 -4.5058e-20 1.46385)
(108.004 4.51785e-20 1.38734)
(108.265 0 1.3126)
(108.537 4.25339e-23 1.24014)
(108.82 -4.54821e-20 1.17046)
(109.116 4.56436e-20 1.10412)
(109.424 4.33902e-23 1.04166)
(109.746 -4.58982e-20 0.983413)
(110.068 -4.60191e-20 0.932215)
(110.371 -4.60992e-20 0.890127)
(110.656 -1.58202e-23 0.855775)
(110.924 -8.14466e-25 0.827822)
(111.173 -2.32272e-20 0.805014)
(111.406 0 0.786176)
(111.624 1.06546e-23 0.770228)
(111.826 5.52248e-25 0.756186)
(112.014 -1.82022e-23 0.743189)
(112.189 -8.49647e-24 0.730457)
(112.351 -1.45273e-23 0.717321)
(112.503 1.1751e-20 0.703248)
(112.645 1.2149e-23 0.687758)
(112.777 5.87711e-21 0.670579)
(112.901 2.94065e-21 0.651512)
(113.017 2.95246e-21 0.630451)
(113.127 -2.95521e-21 0.607452)
(113.229 3.18279e-24 0.582602)
(113.326 1.4804e-21 0.555975)
(114.986 0 0.547228)
(110.043 9.22484e-20 2.14698)
(106.719 0 2.18699)
(106.917 4.4772e-20 2.12489)
(107.124 -2.47176e-23 2.06228)
(107.34 4.50087e-20 2.00013)
(107.565 8.14426e-23 1.93895)
(107.8 -4.51503e-20 1.87917)
(108.044 4.51822e-20 1.82122)
(108.298 -6.13695e-23 1.76555)
(108.563 4.54557e-20 1.71264)
(108.838 0 1.66302)
(109.125 4.56834e-20 1.61724)
(109.422 4.58047e-20 1.57589)
(109.732 -4.58846e-20 1.53947)
(110.041 4.91505e-23 1.5099)
(110.332 -5.99961e-23 1.48826)
(110.605 -4.30724e-23 1.47343)
(110.861 2.32027e-20 1.46436)
(111.099 -2.32485e-20 1.46013)
(111.322 6.05149e-25 1.45998)
(111.529 -1.1679e-20 1.46328)
(111.721 1.16929e-20 1.46961)
(111.9 -6.30233e-24 1.47868)
(112.066 -1.17483e-20 1.49038)
(112.22 -1.06749e-23 1.5047)
(112.362 -5.30903e-24 1.52171)
(112.492 -5.90592e-21 1.54151)
(112.613 -1.28371e-23 1.56424)
(112.723 -2.65322e-24 1.58999)
(112.824 2.95178e-21 1.6188)
(112.916 -5.93465e-21 1.65069)
(113 -1.62465e-23 1.68555)
(113.076 1.415e-23 1.72309)
(114.452 3.84094e-24 1.79356)
(109.746 4.59491e-20 2.49284)
(106.76 4.48291e-20 2.51864)
(106.957 9.07611e-23 2.46802)
(107.161 0 2.4189)
(107.373 0 2.37119)
(107.594 1.3802e-22 2.32505)
(107.823 1.6946e-22 2.28081)
(108.062 1.14702e-22 2.23883)
(108.31 1.10263e-22 2.19956)
(108.567 0 2.16345)
(108.834 0 2.131)
(109.111 0 2.10275)
(109.397 0 2.0793)
(109.696 0 2.06127)
(109.992 4.61163e-20 2.04976)
(110.27 0 2.04503)
(110.529 -2.31893e-20 2.04608)
(110.771 4.64613e-20 2.05198)
(110.997 0 2.06183)
(111.206 -2.32853e-20 2.07478)
(111.401 -1.16279e-20 2.08995)
(111.582 1.16962e-20 2.10646)
(111.75 0 2.12341)
(111.906 -1.17306e-20 2.13992)
(112.051 -5.87779e-21 2.15509)
(112.185 -1.17651e-20 2.16812)
(112.311 4.79351e-24 2.17825)
(112.427 0 2.18492)
(112.536 2.4008e-24 2.18766)
(112.637 2.97364e-21 2.18618)
(112.73 -2.93667e-21 2.18038)
(112.818 -1.028e-23 2.17029)
(112.899 -1.48747e-21 2.156)
(114.064 1.4958e-21 2.16689)
(109.466 0 2.82997)
(106.787 4.48651e-20 2.84033)
(106.979 0 2.80294)
(107.179 0 2.76766)
(107.387 -1.1182e-22 2.73427)
(107.603 -2.06863e-22 2.70289)
(107.827 4.53659e-20 2.67378)
(108.059 1.65286e-22 2.64727)
(108.3 0 2.62378)
(108.55 0 2.60372)
(108.808 -7.54523e-23 2.58755)
(109.075 -7.18002e-23 2.57578)
(109.351 3.24737e-23 2.56894)
(109.637 3.08666e-23 2.56767)
(109.92 0 2.57227)
(110.185 -4.6304e-20 2.5822)
(110.431 -4.63908e-20 2.59666)
(110.659 2.32351e-20 2.61503)
(110.87 0 2.63681)
(111.064 -2.32672e-20 2.66167)
(111.243 4.93904e-23 2.68939)
(111.408 0 2.71986)
(111.559 0 2.75303)
(111.697 0 2.7889)
(111.824 -5.87148e-21 2.82745)
(111.941 -5.81823e-21 2.86864)
(112.048 5.93497e-21 2.91238)
(112.147 -2.94686e-21 2.95853)
(112.239 -2.12438e-24 3.00688)
(112.324 2.94974e-21 3.05719)
(112.403 0 3.10919)
(112.476 0 3.16254)
(112.545 -1.49547e-21 3.21678)
(113.506 1.48629e-21 3.30558)
(109.203 -3.12733e-22 3.13072)
(106.796 4.4793e-20 3.14647)
(106.984 2.71876e-22 3.12399)
(107.18 4.53754e-20 3.10247)
(107.384 -2.24833e-22 3.08255)
(107.595 -2.20211e-22 3.06469)
(107.813 4.53707e-20 3.04927)
(108.039 0 3.03668)
(108.273 4.54252e-20 3.02731)
(108.514 4.5645e-20 3.02156)
(108.764 2.12034e-22 3.01983)
(109.021 1.74957e-22 3.02256)
(109.287 4.60661e-20 3.03019)
(109.562 0 3.04325)
(109.833 0 3.06118)
(110.086 -4.62941e-20 3.08256)
(110.32 -2.31969e-20 3.10649)
(110.536 0 3.13221)
(110.735 2.32964e-20 3.15908)