/*--------------------------------*- C++ -*----------------------------------*\
| =========                 |                                                 |
| \\      /  F ield         | OpenFOAM: The Open Source CFD Toolbox           |
|  \\    /   O peration     | Version:  2.3.0                                 |
|   \\  /    A nd           | Web:      www.OpenFOAM.org                      |
|    \\/     M anipulation  |                                                 |
\*---------------------------------------------------------------------------*/
FoamFile
{
    version     2.0;
    format      ascii;
    class       volScalarField;
    location    "100";
    object      k;
}
// * * * * * * * * * * * * * * * * * * * * * * * * * * * * * * * * * * * * * //

dimensions      [0 2 -2 0 0 0 0];

internalField   nonuniform List<scalar> 
14137
(
0.00405498
0.00405396
0.00405296
0.00405197
0.00405098
0.00405002
0.00404906
0.00404812
0.0040472
0.00404629
0.0040454
0.00404454
0.0040437
0.00404291
0.00404216
0.00404148
0.00404089
0.00404044
0.00404019
0.00404028
0.00404093
0.00404262
0.00404514
0.00404798
0.00405112
0.00405484
0.00405945
0.00406336
0.00406663
0.00406941
0.00407185
0.00407406
0.00407618
0.00407833
0.00408067
0.00408332
0.00408645
0.00409013
0.00409442
0.00409937
0.00410498
0.00411123
0.00411804
0.00412529
0.0041328
0.0041404
0.0041479
0.00415514
0.004162
0.00405496
0.00405393
0.00405292
0.00405192
0.00405093
0.00404995
0.00404899
0.00404804
0.00404711
0.0040462
0.00404531
0.00404445
0.00404361
0.00404282
0.00404207
0.0040414
0.00404082
0.00404037
0.00404014
0.00404025
0.00404093
0.00404267
0.00404525
0.00404814
0.00405131
0.00405507
0.00405971
0.00406364
0.00406692
0.0040697
0.00407213
0.00407434
0.00407646
0.00407861
0.00408094
0.00408361
0.00408673
0.00409042
0.0040947
0.00409964
0.00410523
0.00411145
0.00411821
0.00412539
0.00413282
0.00414032
0.00414771
0.00415483
0.00416157
0.00405495
0.0040539
0.00405288
0.00405186
0.00405086
0.00404988
0.00404891
0.00404796
0.00404702
0.00404611
0.00404522
0.00404435
0.00404352
0.00404272
0.00404198
0.00404131
0.00404074
0.0040403
0.00404009
0.00404022
0.00404093
0.00404272
0.00404535
0.00404828
0.0040515
0.00405529
0.00405997
0.00406393
0.00406721
0.00406999
0.00407242
0.00407462
0.00407674
0.00407889
0.00408122
0.00408389
0.00408702
0.0040907
0.00409498
0.00409989
0.00410546
0.00411164
0.00411834
0.00412544
0.00413278
0.00414016
0.00414743
0.00415443
0.00416105
0.00405493
0.00405388
0.00405284
0.00405181
0.0040508
0.00404981
0.00404883
0.00404787
0.00404693
0.00404601
0.00404512
0.00404425
0.00404342
0.00404263
0.00404189
0.00404122
0.00404066
0.00404023
0.00404003
0.00404019
0.00404094
0.00404279
0.00404548
0.00404845
0.0040517
0.00405554
0.00406025
0.00406422
0.0040675
0.00407028
0.00407271
0.00407491
0.00407702
0.00407917
0.0040815
0.00408417
0.00408729
0.00409097
0.00409524
0.00410013
0.00410567
0.0041118
0.00411844
0.00412546
0.0041327
0.00413997
0.00414712
0.004154
0.00416049
0.00405491
0.00405384
0.00405279
0.00405176
0.00405074
0.00404974
0.00404875
0.00404779
0.00404684
0.00404592
0.00404502
0.00404416
0.00404332
0.00404253
0.0040418
0.00404114
0.00404058
0.00404017
0.00403999
0.00404017
0.00404096
0.00404287
0.00404561
0.00404862
0.00405191
0.00405578
0.00406053
0.0040645
0.00406779
0.00407057
0.00407299
0.00407519
0.0040773
0.00407945
0.00408178
0.00408444
0.00408757
0.00409124
0.0040955
0.00410038
0.00410588
0.00411197
0.00411854
0.00412548
0.00413261
0.00413977
0.0041468
0.00415354
0.0041599
0.0040549
0.00405382
0.00405275
0.00405171
0.00405068
0.00404967
0.00404868
0.00404771
0.00404677
0.00404584
0.00404494
0.00404408
0.00404324
0.00404246
0.00404173
0.00404107
0.00404052
0.00404012
0.00403996
0.00404016
0.00404098
0.00404295
0.00404573
0.00404879
0.00405211
0.00405601
0.0040608
0.00406478
0.00406807
0.00407084
0.00407326
0.00407546
0.00407756
0.00407971
0.00408205
0.00408472
0.00408785
0.00409151
0.00409577
0.00410063
0.00410611
0.00411215
0.00411866
0.00412551
0.00413255
0.00413959
0.00414649
0.00415309
0.00415932
0.00405489
0.0040538
0.00405273
0.00405167
0.00405064
0.00404963
0.00404863
0.00404766
0.00404671
0.00404578
0.00404488
0.00404401
0.00404318
0.0040424
0.00404167
0.00404102
0.00404047
0.00404009
0.00403993
0.00404015
0.00404101
0.00404302
0.00404585
0.00404894
0.00405229
0.00405622
0.00406104
0.00406503
0.00406832
0.0040711
0.00407351
0.00407571
0.00407781
0.00407997
0.0040823
0.00408498
0.00408811
0.00409178
0.00409603
0.00410088
0.00410633
0.00411233
0.00411878
0.00412555
0.00413248
0.00413941
0.00414618
0.00415266
0.00415875
0.00405488
0.00405377
0.00405269
0.00405163
0.00405059
0.00404957
0.00404858
0.0040476
0.00404665
0.00404572
0.00404482
0.00404395
0.00404312
0.00404234
0.00404161
0.00404097
0.00404043
0.00404005
0.00403991
0.00404015
0.00404104
0.0040431
0.00404598
0.0040491
0.00405248
0.00405644
0.00406128
0.00406528
0.00406858
0.00407135
0.00407377
0.00407596
0.00407806
0.00408022
0.00408256
0.00408524
0.00408838
0.00409205
0.00409629
0.00410113
0.00410656
0.00411252
0.00411891
0.0041256
0.00413244
0.00413925
0.00414589
0.00415223
0.00415819
0.00416774
0.00417415
0.00418136
0.00418952
0.00419879
0.00420941
0.00422168
0.00423595
0.00425273
0.00427266
0.00429665
0.0043259
0.00436219
0.00440849
0.00446327
0.00452839
0.00460626
0.00470001
0.00481383
0.00495341
0.00512669
0.00534496
0.00562495
0.00416733
0.00417377
0.00418101
0.00418921
0.00419854
0.00420924
0.00422161
0.00423602
0.004253
0.00427321
0.00429756
0.00432735
0.00436438
0.0044118
0.00446799
0.0045349
0.00461504
0.0047117
0.00482928
0.00497376
0.00515354
0.00538055
0.00567266
0.00605589
0.00729174
0.00416681
0.00417326
0.00418053
0.00418875
0.00419813
0.00420889
0.00422135
0.00423589
0.00425303
0.00427347
0.00429815
0.00432841
0.00436612
0.00441456
0.00447205
0.00454062
0.00462288
0.00472229
0.00484342
0.00499259
0.00517861
0.00541408
0.00571797
0.00611789
0.00666271
0.00741614
0.00854628
0.0100812
0.00416626
0.00417272
0.00418
0.00418825
0.00419767
0.00420849
0.00422102
0.00423567
0.00425297
0.00427363
0.00429863
0.00432933
0.00436769
0.00441712
0.00447589
0.0045461
0.00463049
0.00473265
0.00485742
0.00501139
0.00520388
0.00544821
0.00576458
0.00618236
0.00675438
0.00754849
0.00875062
0.0103103
0.0134159
0.00416565
0.00417211
0.0041794
0.00418767
0.00419711
0.00420798
0.00422058
0.00423533
0.00425277
0.00427363
0.00429891
0.00433002
0.00436899
0.00441936
0.00447933
0.00455112
0.00463756
0.00474242
0.00487074
0.00502947
0.00522842
0.00548164
0.00581063
0.00624656
0.0068465
0.00768256
0.00896
0.0105328
0.0138171
0.0168172
0.00416505
0.00417149
0.00417877
0.00418705
0.00419651
0.00420742
0.00422008
0.00423491
0.00425248
0.00427352
0.00429906
0.00433056
0.00437011
0.00442136
0.0044825
0.0045558
0.00464424
0.00475172
0.00488354
0.00504695
0.0052523
0.0055144
0.00585606
0.00631031
0.00693866
0.0078175
0.00917262
0.0107517
0.0141888
0.0174678
0.0301672
0.00416446
0.00417089
0.00417816
0.00418644
0.00419593
0.00420686
0.00421958
0.0042345
0.0042522
0.00427342
0.00429923
0.00433112
0.00437124
0.00442339
0.0044857
0.00456056
0.00465104
0.00476126
0.00489673
0.00506511
0.00527729
0.00554893
0.00590436
0.00637871
0.00703866
0.00796544
0.00941611
0.0110339
0.014595
0.0184078
0.0325614
0.0748577
0.00416387
0.00417027
0.00417753
0.0041858
0.00419529
0.00420625
0.00421902
0.00423401
0.00425182
0.0042732
0.00429925
0.00433149
0.00437215
0.00442513
0.00448854
0.00456486
0.00465729
0.00477009
0.00490906
0.0050822
0.00530096
0.00558183
0.00595064
0.00644455
0.00713547
0.00810937
0.00962885
0.0112836
0.014954
0.0192271
0.0345808
0.0781829
0.126701
0.00405486
0.00405375
0.00405266
0.00405159
0.00405054
0.00404952
0.00404852
0.00404754
0.00404658
0.00404565
0.00404475
0.00404388
0.00404305
0.00404227
0.00404155
0.00404091
0.00404038
0.00404002
0.00403989
0.00404015
0.00404106
0.00404318
0.0040461
0.00404926
0.00405267
0.00405668
0.00406157
0.0040656
0.00406889
0.00407167
0.00407409
0.00407629
0.0040784
0.00408058
0.00408296
0.0040857
0.00408892
0.00409269
0.00409707
0.00410208
0.0041077
0.00411389
0.00412054
0.0041275
0.00413462
0.00414172
0.00414865
0.00415527
0.00416147
0.00405485
0.00405373
0.00405263
0.00405155
0.0040505
0.00404947
0.00404846
0.00404748
0.00404652
0.00404559
0.00404468
0.00404382
0.00404299
0.00404221
0.00404149
0.00404086
0.00404034
0.00403998
0.00403986
0.00404014
0.00404109
0.00404325
0.00404622
0.00404942
0.00405287
0.00405692
0.00406187
0.0040659
0.00406921
0.00407199
0.00407441
0.00407661
0.00407874
0.00408094
0.00408336
0.00408615
0.00408945
0.00409334
0.00409786
0.00410303
0.00410886
0.00411528
0.00412219
0.00412944
0.00413685
0.00414425
0.00415146
0.00415838
0.00416484
0.00405484
0.00405371
0.0040526
0.00405151
0.00405045
0.00404942
0.0040484
0.00404742
0.00404645
0.00404552
0.00404462
0.00404375
0.00404292
0.00404215
0.00404143
0.0040408
0.00404029
0.00403994
0.00403984
0.00404014
0.00404111
0.00404332
0.00404634
0.00404958
0.00405307
0.00405716
0.00406216
0.00406621
0.00406953
0.00407231
0.00407473
0.00407694
0.00407908
0.0040813
0.00408376
0.00408662
0.00409
0.004094
0.00409866
0.00410401
0.00411005
0.00411672
0.00412391
0.00413145
0.00413918
0.0041469
0.00415443
0.00416168
0.00416842
0.00405482
0.00405368
0.00405256
0.00405146
0.0040504
0.00404935
0.00404834
0.00404734
0.00404638
0.00404544
0.00404454
0.00404367
0.00404285
0.00404207
0.00404137
0.00404074
0.00404023
0.00403989
0.00403981
0.00404013
0.00404114
0.0040434
0.00404647
0.00404975
0.00405328
0.00405742
0.00406246
0.00406653
0.00406985
0.00407263
0.00407506
0.00407727
0.00407943
0.00408167
0.00408417
0.00408709
0.00409056
0.00409468
0.00409948
0.00410502
0.00411128
0.00411821
0.00412568
0.00413355
0.0041416
0.00414966
0.00415752
0.0041651
0.00417216
0.00405481
0.00405365
0.00405252
0.00405142
0.00405034
0.00404929
0.00404827
0.00404727
0.00404631
0.00404537
0.00404447
0.0040436
0.00404278
0.004042
0.0040413
0.00404068
0.00404018
0.00403985
0.00403978
0.00404012
0.00404116
0.00404348
0.0040466
0.00404992
0.00405349
0.00405767
0.00406277
0.00406685
0.00407017
0.00407296
0.00407538
0.00407761
0.00407977
0.00408204
0.00408458
0.00408756
0.00409113
0.00409536
0.00410032
0.00410605
0.00411254
0.00411974
0.00412752
0.00413571
0.00414411
0.00415253
0.00416074
0.00416869
0.00417608
0.0040548
0.00405363
0.00405249
0.00405138
0.00405029
0.00404924
0.00404821
0.00404721
0.00404624
0.0040453
0.00404439
0.00404353
0.0040427
0.00404193
0.00404123
0.00404062
0.00404013
0.00403981
0.00403975
0.00404011
0.00404118
0.00404355
0.00404672
0.00405008
0.00405369
0.00405792
0.00406306
0.00406716
0.00407049
0.00407328
0.00407571
0.00407793
0.00408012
0.00408241
0.00408499
0.00408804
0.0040917
0.00409605
0.00410116
0.00410708
0.00411381
0.00412128
0.00412937
0.0041379
0.00414666
0.00415545
0.00416403
0.00417235
0.00418009
0.00405478
0.0040536
0.00405245
0.00405133
0.00405023
0.00404917
0.00404814
0.00404713
0.00404616
0.00404522
0.00404431
0.00404345
0.00404263
0.00404186
0.00404116
0.00404055
0.00404007
0.00403976
0.00403972
0.0040401
0.00404121
0.00404363
0.00404685
0.00405026
0.0040539
0.00405817
0.00406336
0.00406748
0.00407081
0.00407361
0.00407604
0.00407827
0.00408046
0.00408278
0.00408541
0.00408852
0.00409228
0.00409675
0.00410203
0.00410815
0.00411512
0.00412288
0.0041313
0.00414018
0.00414932
0.0041585
0.00416747
0.00417618
0.00418429
0.00405477
0.00405357
0.0040524
0.00405127
0.00405017
0.0040491
0.00404806
0.00404706
0.00404608
0.00404514
0.00404423
0.00404336
0.00404255
0.00404178
0.00404109
0.00404049
0.00404001
0.00403971
0.00403969
0.00404009
0.00404123
0.00404371
0.00404698
0.00405043
0.00405412
0.00405844
0.00406367
0.0040678
0.00407114
0.00407393
0.00407636
0.0040786
0.00408081
0.00408316
0.00408583
0.00408902
0.00409286
0.00409747
0.00410291
0.00410925
0.00411648
0.00412454
0.00413329
0.00414255
0.00415209
0.00416168
0.00417107
0.00418021
0.00418871
0.00405475
0.00405354
0.00405237
0.00405122
0.00405011
0.00404904
0.00404799
0.00404698
0.004046
0.00404506
0.00404415
0.00404328
0.00404247
0.00404171
0.00404102
0.00404042
0.00403995
0.00403967
0.00403966
0.00404008
0.00404125
0.00404378
0.00404711
0.0040506
0.00405433
0.0040587
0.00406397
0.00406812
0.00407147
0.00407426
0.00407669
0.00407894
0.00408116
0.00408353
0.00408625
0.00408951
0.00409345
0.00409819
0.0041038
0.00411035
0.00411784
0.0041262
0.0041353
0.00414495
0.00415489
0.0041649
0.00417471
0.00418429
0.0041932
0.00405474
0.00405352
0.00405233
0.00405118
0.00405006
0.00404897
0.00404792
0.00404691
0.00404592
0.00404498
0.00404407
0.0040432
0.00404239
0.00404163
0.00404094
0.00404035
0.00403989
0.00403962
0.00403962
0.00404007
0.00404128
0.00404386
0.00404724
0.00405078
0.00405454
0.00405895
0.00406427
0.00406843
0.00407179
0.00407458
0.00407702
0.00407927
0.0040815
0.00408391
0.00408667
0.00409
0.00409405
0.00409892
0.0041047
0.00411147
0.00411923
0.00412791
0.00413737
0.00414742
0.00415779
0.00416826
0.00417852
0.00418855
0.00419791
0.00405472
0.00405348
0.00405228
0.00405111
0.00404999
0.0040489
0.00404784
0.00404682
0.00404583
0.00404488
0.00404398
0.00404311
0.0040423
0.00404154
0.00404086
0.00404028
0.00403983
0.00403957
0.00403959
0.00404006
0.0040413
0.00404394
0.00404737
0.00405096
0.00405477
0.00405923
0.00406458
0.00406876
0.00407212
0.00407492
0.00407735
0.00407961
0.00408186
0.00408429
0.0040871
0.00409051
0.00409466
0.00409967
0.00410564
0.00411264
0.00412069
0.00412971
0.00413956
0.00415003
0.00416086
0.00417181
0.00418255
0.00419308
0.00420292
0.0040547
0.00405344
0.00405223
0.00405106
0.00404992
0.00404882
0.00404776
0.00404673
0.00404574
0.0040448
0.00404389
0.00404302
0.00404221
0.00404146
0.00404079
0.00404021
0.00403977
0.00403952
0.00403955
0.00404005
0.00404133
0.00404403
0.00404751
0.00405114
0.00405499
0.0040595
0.00406489
0.00406909
0.00407245
0.00407525
0.00407768
0.00407994
0.00408221
0.00408467
0.00408754
0.00409102
0.00409527
0.00410043
0.00410658
0.00411382
0.00412215
0.00413151
0.00414175
0.00415266
0.00416395
0.00417538
0.00418662
0.00419766
0.00420797
0.00405469
0.00405342
0.00405219
0.004051
0.00404986
0.00404875
0.00404768
0.00404665
0.00404566
0.00404471
0.0040438
0.00404293
0.00404212
0.00404138
0.00404071
0.00404014
0.0040397
0.00403946
0.00403952
0.00404004
0.00404135
0.0040441
0.00404765
0.00405132
0.00405521
0.00405976
0.00406519
0.00406941
0.00407278
0.00407557
0.00407801
0.00408028
0.00408256
0.00408505
0.00408797
0.00409153
0.00409589
0.00410119
0.00410753
0.00411501
0.00412364
0.00413336
0.00414401
0.00415537
0.00416716
0.0041791
0.00419087
0.00420244
0.00421327
0.00405467
0.00405338
0.00405214
0.00405094
0.00404979
0.00404867
0.0040476
0.00404656
0.00404557
0.00404461
0.0040437
0.00404284
0.00404203
0.00404129
0.00404062
0.00404006
0.00403964
0.00403941
0.00403948
0.00404003
0.00404137
0.00404419
0.00404779
0.00405151
0.00405544
0.00406004
0.00406551
0.00406974
0.00407311
0.00407591
0.00407834
0.00408061
0.00408291
0.00408543
0.0040884
0.00409204
0.00409652
0.00410197
0.00410851
0.00411624
0.00412518
0.00413527
0.00414634
0.00415818
0.00417049
0.00418297
0.00419529
0.00420742
0.0042188
0.00405464
0.00405334
0.00405208
0.00405087
0.00404971
0.00404859
0.00404751
0.00404647
0.00404547
0.00404451
0.0040436
0.00404274
0.00404194
0.0040412
0.00404054
0.00403998
0.00403957
0.00403936
0.00403945
0.00404002
0.0040414
0.00404427
0.00404793
0.0040517
0.00405567
0.00406032
0.00406583
0.00407007
0.00407345
0.00407624
0.00407868
0.00408095
0.00408327
0.00408582
0.00408885
0.00409257
0.00409716
0.00410276
0.00410951
0.0041175
0.00412676
0.00413723
0.00414875
0.00416108
0.00417393
0.00418697
0.00419986
0.00421259
0.00422454
0.00405462
0.0040533
0.00405203
0.00405081
0.00404964
0.00404851
0.00404742
0.00404637
0.00404537
0.00404442
0.00404351
0.00404265
0.00404184
0.00404111
0.00404046
0.00403991
0.0040395
0.0040393
0.00403941
0.00404
0.00404143
0.00404436
0.00404808
0.00405189
0.0040559
0.0040606
0.00406614
0.0040704
0.00407378
0.00407657
0.00407901
0.00408129
0.00408362
0.00408621
0.00408929
0.00409309
0.0040978
0.00410356
0.00411052
0.00411878
0.00412837
0.00413923
0.00415121
0.00416406
0.00417746
0.0041911
0.00420459
0.00421793
0.00423048
0.00405461
0.00405327
0.00405199
0.00405075
0.00404957
0.00404843
0.00404733
0.00404629
0.00404528
0.00404432
0.00404341
0.00404255
0.00404175
0.00404102
0.00404037
0.00403983
0.00403944
0.00403925
0.00403937
0.00403999
0.00404145
0.00404444
0.00404822
0.00405208
0.00405613
0.00406087
0.00406645
0.00407073
0.00407411
0.0040769
0.00407934
0.00408163
0.00408397
0.00408659
0.00408973
0.00409362
0.00409844
0.00410437
0.00411154
0.00412007
0.00413001
0.00414129
0.00415375
0.00416714
0.00418113
0.00419539
0.00420952
0.00422352
0.00423671
0.00405458
0.00405322
0.00405192
0.00405068
0.00404948
0.00404833
0.00404723
0.00404618
0.00404517
0.00404421
0.0040433
0.00404245
0.00404165
0.00404092
0.00404028
0.00403975
0.00403936
0.00403919
0.00403933
0.00403998
0.00404148
0.00404454
0.00404837
0.00405228
0.00405638
0.00406116
0.00406678
0.00407107
0.00407445
0.00407724
0.00407968
0.00408197
0.00408433
0.00408699
0.00409018
0.00409416
0.00409911
0.0041052
0.0041126
0.00412142
0.00413172
0.00414343
0.00415639
0.00417034
0.00418495
0.00419985
0.00421464
0.00422931
0.00424317
0.00405455
0.00405318
0.00405186
0.0040506
0.0040494
0.00404824
0.00404714
0.00404608
0.00404507
0.00404411
0.0040432
0.00404234
0.00404155
0.00404082
0.00404019
0.00403967
0.00403929
0.00403913
0.0040393
0.00403997
0.00404151
0.00404463
0.00404853
0.00405248
0.00405662
0.00406146
0.00406711
0.00407141
0.00407479
0.00407758
0.00408001
0.00408231
0.00408469
0.00408738
0.00409064
0.00409471
0.00409978
0.00410605
0.00411367
0.0041228
0.00413346
0.00414562
0.0041591
0.00417364
0.00418889
0.00420447
0.00421996
0.00423535
0.00424991
0.00405453
0.00405314
0.0040518
0.00405053
0.00404932
0.00404815
0.00404704
0.00404598
0.00404496
0.004044
0.00404309
0.00404224
0.00404145
0.00404073
0.0040401
0.00403958
0.00403922
0.00403908
0.00403926
0.00403996
0.00404154
0.00404472
0.00404868
0.00405268
0.00405686
0.00406174
0.00406743
0.00407175
0.00407513
0.00407791
0.00408034
0.00408265
0.00408504
0.00408777
0.00409109
0.00409525
0.00410046
0.0041069
0.00411476
0.00412419
0.00413524
0.00414787
0.00416189
0.00417704
0.00419297
0.00420926
0.00422548
0.00424163
0.00425693
0.00405451
0.00405309
0.00405174
0.00405046
0.00404923
0.00404806
0.00404694
0.00404587
0.00404486
0.00404389
0.00404298
0.00404213
0.00404134
0.00404063
0.00404001
0.0040395
0.00403915
0.00403902
0.00403922
0.00403995
0.00404157
0.00404482
0.00404883
0.00405289
0.00405711
0.00406203
0.00406776
0.00407209
0.00407547
0.00407825
0.00408068
0.00408299
0.0040854
0.00408817
0.00409155
0.0040958
0.00410114
0.00410777
0.00411588
0.00412563
0.00413708
0.00415019
0.00416478
0.00418058
0.00419721
0.00421424
0.00423123
0.00424818
0.00426426
0.00405448
0.00405304
0.00405167
0.00405037
0.00404913
0.00404795
0.00404683
0.00404576
0.00404474
0.00404378
0.00404287
0.00404202
0.00404123
0.00404053
0.00403991
0.00403941
0.00403907
0.00403896
0.00403918
0.00403994
0.0040416
0.00404492
0.004049
0.0040531
0.00405736
0.00406234
0.0040681
0.00407244
0.00407582
0.00407859
0.00408102
0.00408333
0.00408576
0.00408857
0.00409202
0.00409637
0.00410185
0.00410867
0.00411704
0.00412712
0.004139
0.00415262
0.00416782
0.00418429
0.00420167
0.00421948
0.00423729
0.0042551
0.00427199
0.00405445
0.00405299
0.0040516
0.00405029
0.00404904
0.00404785
0.00404672
0.00404565
0.00404463
0.00404366
0.00404275
0.0040419
0.00404112
0.00404042
0.00403981
0.00403932
0.004039
0.0040389
0.00403914
0.00403993
0.00404163
0.00404502
0.00404917
0.00405331
0.00405761
0.00406264
0.00406844
0.00407278
0.00407616
0.00407893
0.00408135
0.00408367
0.00408613
0.00408897
0.00409249
0.00409694
0.00410256
0.00410957
0.00411821
0.00412865
0.00414096
0.00415512
0.00417095
0.00418812
0.0042063
0.00422493
0.00424361
0.00426232
0.00428009
0.00405443
0.00405295
0.00405154
0.00405021
0.00404895
0.00404775
0.00404662
0.00404554
0.00404451
0.00404355
0.00404264
0.00404179
0.00404102
0.00404032
0.00403972
0.00403924
0.00403892
0.00403884
0.0040391
0.00403991
0.00404166
0.00404511
0.00404933
0.00405352
0.00405786
0.00406293
0.00406877
0.00407312
0.0040765
0.00407927
0.00408169
0.00408401
0.00408648
0.00408937
0.00409295
0.00409751
0.00410327
0.00411049
0.0041194
0.00413019
0.00414296
0.00415766
0.00417414
0.00419205
0.00421103
0.00423052
0.00425009
0.00426974
0.00428845
0.00405439
0.00405288
0.00405146
0.00405012
0.00404885
0.00404764
0.0040465
0.00404541
0.00404439
0.00404342
0.00404252
0.00404167
0.0040409
0.00404021
0.00403962
0.00403915
0.00403884
0.00403878
0.00403906
0.00403991
0.0040417
0.00404522
0.0040495
0.00405374
0.00405813
0.00406324
0.00406912
0.00407348
0.00407685
0.00407961
0.00408203
0.00408436
0.00408685
0.00408977
0.00409343
0.00409809
0.00410401
0.00411144
0.00412063
0.0041318
0.00414503
0.00416031
0.00417746
0.00419613
0.00421596
0.00423634
0.00425683
0.00427747
0.00429728
0.00405436
0.00405282
0.00405138
0.00405003
0.00404874
0.00404753
0.00404638
0.00404529
0.00404426
0.0040433
0.00404239
0.00404155
0.00404078
0.0040401
0.00403951
0.00403906
0.00403877
0.00403872
0.00403902
0.0040399
0.00404174
0.00404533
0.00404968
0.00405397
0.00405839
0.00406355
0.00406947
0.00407384
0.0040772
0.00407995
0.00408237
0.0040847
0.00408721
0.00409018
0.00409391
0.00409868
0.00410475
0.00411241
0.0041219
0.00413346
0.00414719
0.00416307
0.00418094
0.00420042
0.00422115
0.00424247
0.00426406
0.00428586
0.00430663
0.00405433
0.00405277
0.00405131
0.00404994
0.00404864
0.00404742
0.00404626
0.00404517
0.00404414
0.00404317
0.00404227
0.00404143
0.00404067
0.00403999
0.00403941
0.00403896
0.00403869
0.00403865
0.00403898
0.00403989
0.00404177
0.00404544
0.00404986
0.00405419
0.00405865
0.00406386
0.00406982
0.00407419
0.00407755
0.00408029
0.0040827
0.00408504
0.00408758
0.00409059
0.00409439
0.00409927
0.00410551
0.00411339
0.00412319
0.00413515
0.0041494
0.00416591
0.00418452
0.00420484
0.00422652
0.00424886
0.00427168
0.00429457
0.00431634
0.0040543
0.00405271
0.00405123
0.00404984
0.00404853
0.0040473
0.00404614
0.00404504
0.00404401
0.00404304
0.00404214
0.00404131
0.00404055
0.00403988
0.00403931
0.00403887
0.00403861
0.00403859
0.00403894
0.00403988
0.00404181
0.00404555
0.00405004
0.00405442
0.00405892
0.00406417
0.00407017
0.00407454
0.0040779
0.00408063
0.00408304
0.00408539
0.00408794
0.004091
0.00409488
0.00409988
0.00410628
0.00411439
0.00412451
0.00413689
0.00415168
0.00416884
0.00418823
0.00420943
0.00423209
0.00425566
0.00427961
0.00430366
0.00432646
0.00405425
0.00405264
0.00405114
0.00404973
0.00404841
0.00404717
0.00404601
0.00404491
0.00404387
0.00404291
0.00404201
0.00404118
0.00404043
0.00403976
0.0040392
0.00403877
0.00403853
0.00403853
0.0040389
0.00403988
0.00404185
0.00404567
0.00405023
0.00405466
0.0040592
0.0040645
0.00407053
0.00407491
0.00407826
0.00408098
0.00408338
0.00408573
0.00408831
0.00409142
0.00409538
0.0041005
0.00410707
0.00411543
0.0041259
0.00413872
0.00415407
0.00417193
0.00419214
0.00421427
0.00423816
0.00426286
0.00428797
0.00431322
0.00433711
0.00405422
0.00405258
0.00405105
0.00404963
0.0040483
0.00404705
0.00404587
0.00404477
0.00404374
0.00404277
0.00404187
0.00404105
0.0040403
0.00403964
0.00403909
0.00403868
0.00403844
0.00403846
0.00403887
0.00403987
0.0040419
0.00404579
0.00405042
0.00405489
0.00405947
0.00406482
0.00407089
0.00407527
0.00407861
0.00408132
0.00408372
0.00408608
0.00408868
0.00409184
0.00409588
0.00410112
0.00410788
0.00411649
0.00412731
0.00414059
0.00415654
0.00417511
0.00419619
0.00421938
0.00424452
0.00427039
0.0042967
0.00432322
0.00434825
0.00405419
0.00405252
0.00405097
0.00404953
0.00404819
0.00404693
0.00404575
0.00404464
0.0040436
0.00404264
0.00404174
0.00404092
0.00404018
0.00403953
0.00403899
0.00403858
0.00403836
0.0040384
0.00403883
0.00403986
0.00404194
0.00404591
0.00405061
0.00405513
0.00405974
0.00406513
0.00407125
0.00407563
0.00407896
0.00408166
0.00408406
0.00408642
0.00408905
0.00409226
0.00409638
0.00410175
0.00410869
0.00411756
0.00412874
0.0041425
0.00415905
0.00417837
0.00420034
0.00422468
0.00425106
0.00427813
0.0043057
0.00433352
0.00435975
0.00405414
0.00405244
0.00405087
0.00404941
0.00404806
0.00404679
0.0040456
0.00404449
0.00404346
0.00404249
0.0040416
0.00404078
0.00404005
0.00403941
0.00403887
0.00403848
0.00403828
0.00403834
0.00403879
0.00403986
0.00404198
0.00404603
0.00405081
0.00405537
0.00406003
0.00406546
0.00407162
0.004076
0.00407932
0.00408201
0.0040844
0.00408677
0.00408942
0.00409268
0.0040969
0.00410239
0.00410953
0.00411869
0.00413024
0.00414451
0.0041617
0.00418181
0.00420483
0.00423037
0.00425796
0.00428631
0.0043152
0.00434438
0.00437188
0.00405409
0.00405236
0.00405076
0.00404929
0.00404792
0.00404665
0.00404546
0.00404435
0.00404331
0.00404235
0.00404146
0.00404064
0.00403992
0.00403928
0.00403876
0.00403838
0.00403819
0.00403827
0.00403875
0.00403986
0.00404203
0.00404617
0.00405102
0.00405562
0.00406032
0.0040658
0.004072
0.00407637
0.00407968
0.00408235
0.00408474
0.00408712
0.0040898
0.00409311
0.00409742
0.00410305
0.0041104
0.00411984
0.0041318
0.00414659
0.00416447
0.00418546
0.00420965
0.00423636
0.00426523
0.00429493
0.00432522
0.00435583
0.00438472
0.00405405
0.00405228
0.00405067
0.00404918
0.0040478
0.00404651
0.00404532
0.0040442
0.00404316
0.0040422
0.00404131
0.00404051
0.00403978
0.00403916
0.00403865
0.00403828
0.00403811
0.00403821
0.00403871
0.00403985
0.00404208
0.0040463
0.00405122
0.00405587
0.0040606
0.00406613
0.00407237
0.00407674
0.00408003
0.0040827
0.00408508
0.00408746
0.00409017
0.00409354
0.00409794
0.00410372
0.00411127
0.00412101
0.00413338
0.00414872
0.0041673
0.00418926
0.00421462
0.00424255
0.00427276
0.00430386
0.00433561
0.00436771
0.00439807
0.00405401
0.00405221
0.00405056
0.00404906
0.00404766
0.00404637
0.00404517
0.00404405
0.00404301
0.00404205
0.00404117
0.00404037
0.00403965
0.00403903
0.00403853
0.00403818
0.00403803
0.00403814
0.00403867
0.00403985
0.00404213
0.00404643
0.00405142
0.00405612
0.00406089
0.00406646
0.00407274
0.00407711
0.00408039
0.00408304
0.00408541
0.00408781
0.00409054
0.00409397
0.00409847
0.00410439
0.00411216
0.00412222
0.00413501
0.00415092
0.00417024
0.0041933
0.0042198
0.00424902
0.00428061
0.00431319
0.00434646
0.00438012
0.00441207
0.00405394
0.00405211
0.00405044
0.00404892
0.00404751
0.00404621
0.00404501
0.00404389
0.00404285
0.0040419
0.00404102
0.00404022
0.00403951
0.00403891
0.00403842
0.00403808
0.00403794
0.00403808
0.00403864
0.00403985
0.00404219
0.00404657
0.00405165
0.00405639
0.00406119
0.0040668
0.00407313
0.0040775
0.00408076
0.00408339
0.00408576
0.00408816
0.00409093
0.00409442
0.00409901
0.00410509
0.0041131
0.00412348
0.00413673
0.00415324
0.00417348
0.00419759
0.00422528
0.00425585
0.00428889
0.00432302
0.00435789
0.00439318
0.00442684
0.00405389
0.00405202
0.00405033
0.00404878
0.00404737
0.00404606
0.00404485
0.00404373
0.00404269
0.00404174
0.00404086
0.00404007
0.00403937
0.00403878
0.0040383
0.00403797
0.00403785
0.00403801
0.0040386
0.00403985
0.00404225
0.00404672
0.00405187
0.00405665
0.00406148
0.00406714
0.00407352
0.00407788
0.00408112
0.00408374
0.0040861
0.00408851
0.00409131
0.00409486
0.00409956
0.0041058
0.00411404
0.00412477
0.00413849
0.00415567
0.00417688
0.00420205
0.004231
0.00426299
0.00429755
0.00433331
0.00436988
0.00440689
0.00444242
0.00405385
0.00405193
0.00405021
0.00404865
0.00404722
0.00404591
0.00404469
0.00404357
0.00404253
0.00404158
0.00404071
0.00403993
0.00403924
0.00403865
0.00403818
0.00403787
0.00403777
0.00403795
0.00403856
0.00403985
0.0040423
0.00404685
0.00405208
0.00405691
0.00406178
0.00406748
0.0040739
0.00407825
0.00408148
0.00408408
0.00408643
0.00408886
0.00409168
0.0040953
0.00410011
0.00410652
0.004115
0.00412608
0.0041403
0.00415821
0.00418039
0.00420668
0.00423695
0.00427042
0.00430658
0.00434405
0.00438239
0.00442123
0.00445875
0.00405378
0.00405183
0.00405008
0.0040485
0.00404706
0.00404574
0.00404452
0.0040434
0.00404237
0.00404142
0.00404055
0.00403977
0.00403909
0.00403851
0.00403806
0.00403776
0.00403768
0.00403788
0.00403853
0.00403986
0.00404236
0.00404701
0.00405232
0.00405718
0.00406208
0.00406783
0.0040743
0.00407864
0.00408184
0.00408443
0.00408678
0.00408921
0.00409207
0.00409576
0.00410068
0.00410726
0.00411601
0.00412746
0.00414222
0.00416095
0.0041841
0.00421157
0.0042432
0.00427822
0.00431604
0.0043553
0.0043955
0.00443624
0.0044759
0.00405371
0.00405172
0.00404995
0.00404835
0.0040469
0.00404557
0.00404435
0.00404323
0.00404219
0.00404125
0.00404039
0.00403962
0.00403894
0.00403838
0.00403794
0.00403766
0.00403759
0.00403782
0.00403849
0.00403987
0.00404243
0.00404717
0.00405255
0.00405746
0.00406239
0.00406818
0.0040747
0.00407903
0.00408221
0.00408478
0.00408712
0.00408956
0.00409246
0.00409622
0.00410126
0.00410803
0.00411705
0.00412889
0.0041443
0.00416384
0.00418802
0.00421674
0.00424984
0.00428651
0.0043261
0.00436726
0.00440944
0.00445225
0.00449425
0.00405365
0.00405161
0.00404981
0.0040482
0.00404674
0.0040454
0.00404418
0.00404305
0.00404202
0.00404108
0.00404023
0.00403946
0.0040388
0.00403824
0.00403782
0.00403755
0.0040375
0.00403776
0.00403846
0.00403987
0.0040425
0.00404733
0.00405278
0.00405773
0.00406269
0.00406853
0.00407509
0.00407941
0.00408257
0.00408513
0.00408746
0.00408991
0.00409285
0.00409668
0.00410184
0.0041088
0.0041181
0.00413037
0.00414648
0.00416686
0.00419211
0.00422216
0.0042568
0.00429521
0.00433667
0.00437985
0.00442415
0.00446919
0.00451372
0.00405358
0.0040515
0.00404968
0.00404804
0.00404657
0.00404523
0.004044
0.00404287
0.00404185
0.00404091
0.00404006
0.00403931
0.00403865
0.00403811
0.00403769
0.00403744
0.00403741
0.00403769
0.00403842
0.00403988
0.00404256
0.00404749
0.00405302
0.004058
0.004063
0.00406888
0.00407549
0.0040798
0.00408294
0.00408547
0.0040878
0.00409026
0.00409324
0.00409714
0.00410244
0.00410959
0.00411919
0.00413195
0.00414874
0.00417001
0.0041964
0.00422782
0.00426407
0.0043043
0.00434771
0.00439301