/*--------------------------------*- C++ -*----------------------------------*\
| =========                 |                                                 |
| \\      /  F ield         | OpenFOAM: The Open Source CFD Toolbox           |
|  \\    /   O peration     | Version:  2.3.0                                 |
|   \\  /    A nd           | Web:      www.OpenFOAM.org                      |
|    \\/     M anipulation  |                                                 |
\*---------------------------------------------------------------------------*/
FoamFile
{
    version     2.0;
    format      ascii;
    class       volScalarField;
    location    "100";
    object      nut;
}
// * * * * * * * * * * * * * * * * * * * * * * * * * * * * * * * * * * * * * //

dimensions      [0 2 -1 0 0 0 0];

internalField   nonuniform List<scalar> 
14137
(
0.0159213
0.015921
0.0159207
0.0159204
0.0159201
0.0159199
0.0159196
0.0159193
0.0159191
0.0159189
0.0159187
0.0159186
0.0159185
0.0159185
0.0159185
0.0159187
0.0159191
0.0159197
0.0159208
0.0159226
0.0159256
0.0159309
0.0118482
0.00681497
0.0040624
0.00259368
0.0017373
0.00118681
0.000815708
0.000562902
0.00039054
0.000272923
0.000192512
0.00013736
9.9358e-05
7.30056e-05
5.46035e-05
4.17398e-05
3.30728e-05
2.7956e-05
2.57962e-05
2.58381e-05
2.73536e-05
2.9789e-05
3.27491e-05
3.59819e-05
3.92613e-05
4.25533e-05
4.54424e-05
0.0159213
0.015921
0.0159207
0.0159204
0.0159201
0.0159198
0.0159196
0.0159193
0.0159191
0.0159189
0.0159187
0.0159186
0.0159185
0.0159184
0.0159185
0.0159187
0.0159191
0.0159198
0.0159209
0.0159227
0.0159258
0.0159312
0.0118544
0.0068215
0.00406856
0.00259933
0.00174237
0.00119138
0.000819823
0.000566477
0.000393528
0.00027539
0.00019455
0.000139051
0.000100775
7.42271e-05
5.56671e-05
4.26771e-05
3.3925e-05
2.87666e-05
2.66057e-05
2.66787e-05
2.82486e-05
3.07539e-05
3.37943e-05
3.71165e-05
4.04889e-05
4.39064e-05
4.67412e-05
0.0159213
0.015921
0.0159207
0.0159204
0.0159201
0.0159198
0.0159195
0.0159193
0.0159191
0.0159189
0.0159187
0.0159185
0.0159185
0.0159184
0.0159185
0.0159187
0.0159191
0.0159198
0.0159209
0.0159228
0.015926
0.0159314
0.0118978
0.00686666
0.00409789
0.00261733
0.00175393
0.00119902
0.000824789
0.000569911
0.000396214
0.000277614
0.000196423
0.000140628
0.000102099
7.53284e-05
5.66023e-05
4.3497e-05
3.46779e-05
2.94951e-05
2.734e-05
2.74465e-05
2.90771e-05
3.16664e-05
3.4807e-05
3.82321e-05
4.17067e-05
4.52256e-05
4.80526e-05
0.0159213
0.015921
0.0159207
0.0159204
0.0159201
0.0159198
0.0159195
0.0159193
0.015919
0.0159188
0.0159187
0.0159185
0.0159184
0.0159184
0.0159185
0.0159187
0.0159191
0.0159198
0.015921
0.0159229
0.0159261
0.0159317
0.0116949
0.00673486
0.00402464
0.00257521
0.00172956
0.00118597
0.000819025
0.000568027
0.000396026
0.000278216
0.000197388
0.000141734
0.000103218
7.63944e-05
5.75863e-05
4.43999e-05
3.55245e-05
3.0319e-05
2.81716e-05
2.83072e-05
2.99821e-05
3.26297e-05
3.58443e-05
3.93613e-05
4.29426e-05
4.66086e-05
4.94512e-05
0.0159213
0.015921
0.0159206
0.0159203
0.0159201
0.0159198
0.0159195
0.0159192
0.015919
0.0159188
0.0159186
0.0159185
0.0159184
0.0159184
0.0159185
0.0159187
0.0159192
0.0159199
0.0159211
0.0159231
0.0159263
0.0159321
0.0115812
0.00667577
0.0039959
0.00256124
0.00172247
0.00118266
0.000817872
0.000568315
0.000397365
0.000279969
0.00019918
0.000143399
0.000104706
7.76999e-05
5.87265e-05
4.54096e-05
3.64498e-05
3.12055e-05
2.90575e-05
2.92333e-05
3.0983e-05
3.37256e-05
3.70414e-05
4.06522e-05
4.43223e-05
4.80609e-05
5.08073e-05
0.0159213
0.015921
0.0159206
0.0159203
0.01592
0.0159198
0.0159195
0.0159192
0.015919
0.0159188
0.0159186
0.0159185
0.0159184
0.0159184
0.0159185
0.0159187
0.0159192
0.0159199
0.0159212
0.0159232
0.0159265
0.0159324
0.0116015
0.0066897
0.00400574
0.00256945
0.00172953
0.00118872
0.000823006
0.000572585
0.000400663
0.000282646
0.000201419
0.000145279
0.000106289
7.90455e-05
5.98831e-05
4.64258e-05
3.73805e-05
3.21033e-05
2.9962e-05
3.01551e-05
3.19344e-05
3.47272e-05
3.81178e-05
4.18223e-05
4.55868e-05
4.94858e-05
5.22764e-05
0.0159213
0.0159209
0.0159206
0.0159203
0.01592
0.0159197
0.0159195
0.0159192
0.015919
0.0159188
0.0159186
0.0159185
0.0159184
0.0159184
0.0159185
0.0159188
0.0159192
0.01592
0.0159212
0.0159233
0.0159267
0.0159326
0.0116147
0.00670022
0.0040139
0.00257496
0.00173351
0.00119193
0.000825776
0.000574937
0.00040278
0.000284415
0.000202891
0.000146531
0.000107377
8.00028e-05
6.0744e-05
4.7229e-05
3.81705e-05
3.29191e-05
3.0837e-05
3.11227e-05
3.30114e-05
3.59152e-05
3.9409e-05
4.32141e-05
4.71e-05
5.09849e-05
5.30947e-05
0.0159213
0.0159209
0.0159206
0.0159203
0.01592
0.0159197
0.0159195
0.0159192
0.015919
0.0159188
0.0159186
0.0159185
0.0159184
0.0159184
0.0159185
0.0159188
0.0159192
0.01592
0.0159213
0.0159234
0.0159269
0.0159329
0.011577
0.00667926
0.00400721
0.00257529
0.00173643
0.00119565
0.000829434
0.00057843
0.000405878
0.00028712
0.000205207
0.000148486
0.000109014
8.13834e-05
6.1911e-05
4.82244e-05
3.90491e-05
3.37358e-05
3.16254e-05
3.19263e-05
3.3862e-05
3.68292e-05
4.04018e-05
4.42459e-05
4.82404e-05
5.20959e-05
5.528e-05
4.76614e-05
5.06984e-05
5.39119e-05
5.74972e-05
6.14336e-05
6.57796e-05
7.06287e-05
7.60672e-05
8.21948e-05
8.44993e-05
7.31777e-05
6.28518e-05
5.34835e-05
4.49853e-05
3.79112e-05
3.20193e-05
2.71147e-05
2.30336e-05
1.9639e-05
1.68183e-05
1.44765e-05
1.25426e-05
1.09462e-05
4.92321e-05
5.26215e-05
5.59671e-05
5.97245e-05
6.39432e-05
6.8607e-05
7.37761e-05
7.95376e-05
8.59902e-05
8.68601e-05
7.50843e-05
6.43634e-05
5.46528e-05
4.58584e-05
3.85636e-05
3.25077e-05
2.74816e-05
2.33112e-05
1.98515e-05
1.69843e-05
1.46099e-05
1.26552e-05
1.10457e-05
9.76121e-06
7.99497e-06
5.08183e-05
5.44469e-05
5.77588e-05
6.15516e-05
6.59153e-05
7.07727e-05
7.6196e-05
8.22972e-05
8.91597e-05
8.9351e-05
7.71011e-05
6.59636e-05
5.58922e-05
4.67863e-05
3.92594e-05
3.30305e-05
2.7876e-05
2.3611e-05
2.0082e-05
1.71649e-05
1.47552e-05
1.27778e-05
1.11536e-05
9.86676e-06
8.80925e-06
8.11514e-06
7.50001e-06
7.43953e-06
5.25827e-05
5.65725e-05
5.99949e-05
6.39614e-05
6.85607e-05
7.36303e-05
7.92516e-05
8.5584e-05
9.27614e-05
9.19209e-05
7.91798e-05
6.76116e-05
5.7167e-05
4.77397e-05
3.99732e-05
3.35657e-05
2.82785e-05
2.39154e-05
2.03144e-05
1.73454e-05
1.48989e-05
1.28976e-05
1.12574e-05
9.96739e-06
8.90921e-06
8.23393e-06
7.63347e-06
7.56447e-06
7.42462e-06
5.4244e-05
5.83733e-05
6.17764e-05
6.58462e-05
7.06905e-05
7.60411e-05
8.19671e-05
8.8629e-05
9.61508e-05
9.4583e-05
8.13305e-05
6.93156e-05
5.84845e-05
4.8725e-05
4.07107e-05
3.41185e-05
2.8694e-05
2.42295e-05
2.0554e-05
1.75313e-05
1.50462e-05
1.30205e-05
1.13637e-05
1.00705e-05
9.0103e-06
8.35571e-06
7.77068e-06
7.67788e-06
7.55757e-06
7.84809e-06
5.54638e-05
5.99357e-05
6.33625e-05
6.74779e-05
7.24019e-05
7.78249e-05
8.38526e-05
9.0661e-05
9.83624e-05
9.73498e-05
8.35608e-05
7.10792e-05
5.98459e-05
4.97413e-05
4.14699e-05
3.46866e-05
2.91203e-05
2.45513e-05
2.07992e-05
1.77213e-05
1.51967e-05
1.31457e-05
1.1472e-05
1.01758e-05
9.11364e-06
8.48043e-06
7.91243e-06
7.78249e-06
7.67907e-06
8.01942e-06
9.78906e-06
5.68914e-05
6.09822e-05
6.43791e-05
6.8669e-05
7.37546e-05
7.9352e-05
8.55953e-05
9.26527e-05
0.000100635
0.000100031
8.57161e-05
7.27787e-05
6.11537e-05
5.07139e-05
4.2193e-05
3.52243e-05
2.95209e-05
2.4851e-05
2.10253e-05
1.78948e-05
1.53328e-05
1.32588e-05
1.15693e-05
1.02728e-05
9.20963e-06
8.60204e-06
8.04702e-06
7.87548e-06
7.79861e-06
8.25716e-06
1.03867e-05
1.80849e-05
5.98766e-05
6.43269e-05
6.72757e-05
7.14319e-05
7.66892e-05
8.25002e-05
8.89878e-05
9.63545e-05
0.000104697
0.000102841
8.79705e-05
7.45529e-05
6.25167e-05
5.17264e-05
4.29453e-05
3.57837e-05
2.99377e-05
2.51632e-05
2.12611e-05
1.80764e-05
1.54755e-05
1.33778e-05
1.16722e-05
1.03751e-05
9.31111e-06
8.72759e-06
8.17188e-06
7.96243e-06
7.90707e-06
8.47034e-06
1.08824e-05
1.87067e-05
2.66454e-05
0.0159213
0.0159209
0.0159206
0.0159203
0.01592
0.0159197
0.0159194
0.0159192
0.015919
0.0159188
0.0159186
0.0159185
0.0159184
0.0159184
0.0159185
0.0159188
0.0159193
0.0159201
0.0159214
0.0159235
0.015927
0.0159332
0.0116175
0.00669958
0.00401218
0.00257429
0.00173395
0.00119337
0.000828003
0.000577656
0.000405418
0.000286985
0.000205382
0.000148901
0.000109587
8.19907e-05
6.25133e-05
4.88561e-05
3.98256e-05
3.481e-05
3.31142e-05
3.38756e-05
3.62965e-05
3.97874e-05
4.39215e-05
4.83881e-05
5.30152e-05
5.6522e-05
6.18721e-05
0.0159213
0.0159209
0.0159206
0.0159203
0.01592
0.0159197
0.0159194
0.0159192
0.0159189
0.0159187
0.0159186
0.0159185
0.0159184
0.0159184
0.0159185
0.0159188
0.0159193
0.0159201
0.0159214
0.0159236
0.0159272
0.0159334
0.0115309
0.00663893
0.00397116
0.00254435
0.00171064
0.00117485
0.000813299
0.000566424
0.000397573
0.000281463
0.00020143
0.000146041
0.000107522
8.05536e-05
6.15545e-05
4.82963e-05
3.96724e-05
3.51039e-05
3.38885e-05
3.5162e-05
3.81407e-05
4.22171e-05
4.69766e-05
5.19542e-05
5.68707e-05
5.99869e-05
6.66861e-05
0.0159213
0.0159209
0.0159206
0.0159203
0.01592
0.0159197
0.0159194
0.0159192
0.0159189
0.0159187
0.0159186
0.0159184
0.0159184
0.0159184
0.0159185
0.0159188
0.0159193
0.0159202
0.0159215
0.0159237
0.0159274
0.0159337
0.0115393
0.00664202
0.00397153
0.00254479
0.00171156
0.00117592
0.000814254
0.000566881
0.000397245
0.000280794
0.000200661
0.000145297
0.000106854
8.00298e-05
6.11825e-05
4.8099e-05
3.97322e-05
3.55068e-05
3.46833e-05
3.63616e-05
3.97548e-05
4.42402e-05
4.94692e-05
5.42631e-05
6.0116e-05
6.33185e-05
7.05852e-05
0.0159213
0.0159209
0.0159206
0.0159203
0.0159199
0.0159197
0.0159194
0.0159191
0.0159189
0.0159187
0.0159185
0.0159184
0.0159184
0.0159184
0.0159185
0.0159188
0.0159194
0.0159202
0.0159216
0.0159238
0.0159275
0.015934
0.011513
0.00662871
0.00396582
0.00254166
0.0017095
0.00117451
0.000813302
0.000566311
0.000397008
0.000280756
0.000200724
0.000145409
0.000106978
8.0101e-05
6.12251e-05
4.8197e-05
4.00171e-05
3.60976e-05
3.56466e-05
3.77279e-05
4.1553e-05
4.64704e-05
5.16837e-05
5.71873e-05
6.3863e-05
6.79594e-05
7.50493e-05
0.0159213
0.0159209
0.0159206
0.0159202
0.0159199
0.0159196
0.0159194
0.0159191
0.0159189
0.0159187
0.0159185
0.0159184
0.0159184
0.0159184
0.0159185
0.0159188
0.0159194
0.0159203
0.0159217
0.0159239
0.0159277
0.0159343
0.0114628
0.00659479
0.00394255
0.00252547
0.001698
0.00116616
0.000807232
0.000561909
0.00039382
0.000278464
0.000199093
0.000144257
0.000106174
7.956e-05
6.0893e-05
4.80886e-05
4.02199e-05
3.66994e-05
3.67007e-05
3.92592e-05
4.36002e-05
4.90678e-05
5.47873e-05
6.10166e-05
6.77206e-05
7.29641e-05
8.10281e-05
0.0159213
0.0159209
0.0159206
0.0159202
0.0159199
0.0159196
0.0159194
0.0159191
0.0159189
0.0159187
0.0159185
0.0159184
0.0159184
0.0159184
0.0159185
0.0159189
0.0159194
0.0159203
0.0159217
0.015924
0.0159279
0.0159345
0.0114695
0.00659744
0.00394169
0.00252281
0.00169483
0.00116311
0.000804528
0.000559643
0.000391974
0.000276998
0.000197955
0.000143397
0.000105547
7.91197e-05
6.06198e-05
4.80292e-05
4.04814e-05
3.73768e-05
3.78499e-05
4.09214e-05
4.58164e-05
5.18906e-05
5.8062e-05
6.49344e-05
7.21687e-05
7.78053e-05
8.74645e-05
0.0159212
0.0159209
0.0159205
0.0159202
0.0159199
0.0159196
0.0159193
0.0159191
0.0159189
0.0159187
0.0159185
0.0159184
0.0159184
0.0159184
0.0159186
0.0159189
0.0159194
0.0159203
0.0159218
0.0159242
0.0159281
0.0159348
0.0114552
0.00658649
0.00393377
0.00251675
0.00169007
0.00115937
0.000801634
0.000557447
0.000390319
0.000275771
0.000197059
0.000142752
0.000105091
7.88108e-05
6.04492e-05
4.80615e-05
4.08408e-05
3.81641e-05
3.91201e-05
4.27054e-05
4.81509e-05
5.48282e-05
6.16779e-05
6.92911e-05
7.72925e-05
8.3707e-05
9.23749e-05
0.0159212
0.0159209
0.0159205
0.0159202
0.0159199
0.0159196
0.0159193
0.0159191
0.0159188
0.0159186
0.0159185
0.0159184
0.0159183
0.0159184
0.0159186
0.0159189
0.0159195
0.0159204
0.0159219
0.0159243
0.0159282
0.0159351
0.0114103
0.00655831
0.00391524
0.00250384
0.00168089
0.00115279
0.000796902
0.000554063
0.000387902
0.000274053
0.00019585
0.000141914
0.000104526
7.84463e-05
6.02614e-05
4.8113e-05
4.12534e-05
3.9033e-05
4.04969e-05
4.46345e-05
5.06697e-05
5.79903e-05
6.62046e-05
7.48856e-05
8.31532e-05
8.85931e-05
9.75859e-05
0.0159212
0.0159209
0.0159205
0.0159202
0.0159199
0.0159196
0.0159193
0.015919
0.0159188
0.0159186
0.0159185
0.0159184
0.0159183
0.0159184
0.0159186
0.0159189
0.0159195
0.0159204
0.0159219
0.0159244
0.0159284
0.0159354
0.0113932
0.00654694
0.00390677
0.00249697
0.00167525
0.00114829
0.000793434
0.000551462
0.000385988
0.000272672
0.000194875
0.000141244
0.000104081
7.81757e-05
6.01582e-05
4.82556e-05
4.17714e-05
4.00234e-05
4.2014e-05
4.6719e-05
5.33732e-05
6.13785e-05
7.02992e-05
7.97699e-05
8.76535e-05
9.45225e-05
0.000103724
0.0159212
0.0159209
0.0159205
0.0159202
0.0159198
0.0159195
0.0159193
0.015919
0.0159188
0.0159186
0.0159185
0.0159184
0.0159183
0.0159184
0.0159186
0.0159189
0.0159195
0.0159205
0.015922
0.0159245
0.0159286
0.0159357
0.0114073
0.00655201
0.00390711
0.00249579
0.00167379
0.00114691
0.000792219
0.000550457
0.000385171
0.000272036
0.000194398
0.000140905
0.000103857
7.80502e-05
6.01523e-05
4.84757e-05
4.23621e-05
4.10841e-05
4.35982e-05
4.88658e-05
5.61204e-05
6.4786e-05
7.43937e-05
8.37246e-05
9.19932e-05
0.000100492
0.000110095
0.0159212
0.0159208
0.0159205
0.0159201
0.0159198
0.0159195
0.0159192
0.015919
0.0159188
0.0159186
0.0159184
0.0159183
0.0159183
0.0159184
0.0159186
0.0159189
0.0159195
0.0159205
0.0159221
0.0159246
0.0159288
0.015936
0.0113844
0.006538
0.00389802
0.0024888
0.00166829
0.00114269
0.000789057
0.000548142
0.000383506
0.000270853
0.000193572
0.000140341
0.000103483
7.78241e-05
6.009e-05
4.86897e-05
4.29983e-05
4.22389e-05
4.53221e-05
5.12322e-05
5.91865e-05
6.86271e-05
7.90516e-05
8.82303e-05
9.79109e-05
0.000106155
0.000117279
0.0159212
0.0159208
0.0159205
0.0159201
0.0159198
0.0159195
0.0159192
0.015919
0.0159187
0.0159186
0.0159184
0.0159183
0.0159183
0.0159184
0.0159186
0.0159189
0.0159196
0.0159206
0.0159222
0.0159247
0.015929
0.0159363
0.011342
0.00651119
0.00388021
0.00247652
0.00165966
0.00113663
0.000784807
0.000545202
0.000381474
0.000269474
0.00019266
0.000139765
0.000103151
7.76775e-05
6.01367e-05
4.90409e-05
4.37941e-05
4.3573e-05
4.7251e-05
5.37994e-05
6.24459e-05
7.26533e-05
8.30402e-05
9.36453e-05
0.000103906
0.000112941
0.000124307
0.0159212
0.0159208
0.0159205
0.0159201
0.0159198
0.0159195
0.0159192
0.0159189
0.0159187
0.0159185
0.0159184
0.0159183
0.0159183
0.0159184
0.0159186
0.015919
0.0159196
0.0159206
0.0159223
0.0159249
0.0159292
0.0159366
0.0113588
0.00651911
0.00388265
0.00247637
0.00165855
0.00113531
0.000783597
0.000544221
0.000380736
0.000268946
0.000192308
0.000139554
0.000103042
7.7658e-05
6.0256e-05
4.94419e-05
4.46286e-05
4.49323e-05
4.9184e-05
5.63599e-05
6.5682e-05
7.66343e-05
8.76973e-05
9.90049e-05
0.000109863
0.000120998
0.000131515
0.0159212
0.0159208
0.0159204
0.0159201
0.0159198
0.0159195
0.0159192
0.0159189
0.0159187
0.0159185
0.0159184
0.0159183
0.0159183
0.0159184
0.0159186
0.015919
0.0159196
0.0159207
0.0159223
0.015925
0.0159294
0.0159369
0.0113651
0.00652093
0.00388184
0.00247456
0.00165671
0.00113379
0.000782384
0.000543303
0.000380036
0.000268438
0.000191953
0.000139324
0.000102916
7.76321e-05
6.03897e-05
4.98922e-05
4.55503e-05
4.64157e-05
5.12807e-05
5.91287e-05
6.91769e-05
8.09339e-05
9.27344e-05
0.000104843
0.000116358
0.000128437
0.000139539
0.0159212
0.0159208
0.0159204
0.0159201
0.0159197
0.0159194
0.0159192
0.0159189
0.0159187
0.0159185
0.0159184
0.0159183
0.0159183
0.0159184
0.0159186
0.015919
0.0159197
0.0159207
0.0159224
0.0159251
0.0159296
0.0159372
0.0113378
0.00650396
0.00387081
0.00246656
0.00165079
0.00112949
0.000779354
0.000541221
0.000378647
0.000267535
0.000191399
0.000139018
0.000102776
7.76278e-05
6.05803e-05
5.04381e-05
4.66004e-05
4.80563e-05
5.35619e-05
6.21141e-05
7.29204e-05
8.55163e-05
9.80949e-05
0.000111066
0.000124561
0.00013628
0.000149414
0.0159212
0.0159208
0.0159204
0.0159201
0.0159197
0.0159194
0.0159191
0.0159189
0.0159186
0.0159185
0.0159183
0.0159183
0.0159183
0.0159184
0.0159186
0.015919
0.0159197
0.0159208
0.0159225
0.0159253
0.0159298
0.0159376
0.011328
0.00649611
0.00386368
0.00246064
0.00164632
0.00112634
0.000777134
0.000539756
0.0003777
0.000266959
0.000191077
0.000138876
0.000102765
7.77356e-05
6.08779e-05
5.10993e-05
4.77767e-05
4.98353e-05
5.59953e-05
6.52647e-05
7.68339e-05
9.0271e-05
0.00010364
0.00011749
0.000131668
0.000144387
0.000157996
0.0159212
0.0159208
0.0159204
0.01592
0.0159197
0.0159194
0.0159191
0.0159188
0.0159186
0.0159184
0.0159183
0.0159182
0.0159182
0.0159183
0.0159186
0.015919
0.0159197
0.0159208
0.0159226
0.0159254
0.01593
0.0159379
0.0113593
0.00651296
0.00387154
0.00246381
0.00164735
0.00112652
0.000777078
0.000539616
0.000377574
0.000266887
0.000191077
0.000138942
0.000102876
7.79117e-05
6.12298e-05
5.18245e-05
4.90292e-05
5.17002e-05
5.85199e-05
6.85127e-05
8.08492e-05
9.5127e-05
0.000109333
0.000125307
0.000139086
0.000154381
0.0001674
0.0159212
0.0159208
0.0159204
0.01592
0.0159197
0.0159194
0.0159191
0.0159188
0.0159186
0.0159184
0.0159183
0.0159182
0.0159182
0.0159183
0.0159186
0.015919
0.0159198
0.0159209
0.0159227
0.0159255
0.0159302
0.0159382
0.0113615
0.00651202
0.00386917
0.00246113
0.0016451
0.00112488
0.000775809
0.000538762
0.000377003
0.000266515
0.000190841
0.000138818
0.000102845
7.7997e-05
6.15481e-05
5.25818e-05
5.03726e-05
5.37102e-05
6.12446e-05
7.20215e-05
8.51834e-05
0.000100372
0.000116611
0.000132479
0.000147325
0.000163421
0.000179242
0.0159212
0.0159208
0.0159204
0.01592
0.0159196
0.0159193
0.015919
0.0159188
0.0159186
0.0159184
0.0159183
0.0159182
0.0159182
0.0159183
0.0159186
0.0159191
0.0159198
0.0159209
0.0159228
0.0159257
0.0159304
0.0159386
0.0113345
0.00649641
0.00385892
0.00245341
0.00163944
0.00112101
0.000773382
0.000537268
0.000376151
0.000266101
0.000190724
0.000138888
0.000103023
7.82865e-05
6.20744e-05
5.356e-05
5.19537e-05
5.59788e-05
6.42471e-05
7.58234e-05
8.98145e-05
0.000105899
0.000122995
0.000139981
0.000157173
0.0001729
0.000189626
0.0159212
0.0159207
0.0159203
0.01592
0.0159196
0.0159193
0.015919
0.0159188
0.0159185
0.0159184
0.0159182
0.0159182
0.0159182
0.0159183
0.0159186
0.0159191
0.0159198
0.015921
0.0159229
0.0159258
0.0159306
0.0159389
0.0113642
0.00651027
0.00386396
0.0024549
0.00163962
0.00112086
0.000773096
0.000537137
0.000376148
0.000266176
0.00019085
0.000139067
0.000103241
7.85783e-05
6.25522e-05
5.45957e-05
5.36163e-05
5.83603e-05
6.74034e-05
7.98372e-05
9.47192e-05
0.000111783
0.000129811
0.000149357
0.000166206
0.000184708
0.000200964
0.0159212
0.0159207
0.0159203
0.0159199
0.0159196
0.0159193
0.015919
0.0159187
0.0159185
0.0159183
0.0159182
0.0159182
0.0159182
0.0159183
0.0159186
0.0159191
0.0159199
0.0159211
0.0159229
0.0159259
0.0159308
0.0159393
0.0113934
0.00652745
0.00387266
0.00245871
0.00164135
0.0011218
0.000773718
0.000537512
0.000376395
0.000266392
0.000191071
0.000139297
0.000103483
7.88996e-05
6.31266e-05
5.54864e-05
5.53732e-05
6.08708e-05
7.07289e-05
8.40704e-05
9.99005e-05
0.000118013
0.00013705
0.00015769
0.000177598
0.000195247
0.000215127
0.0159211
0.0159207
0.0159203
0.0159199
0.0159196
0.0159192
0.015919
0.0159187
0.0159185
0.0159183
0.0159182
0.0159182
0.0159182
0.0159183
0.0159186
0.0159191
0.0159199
0.0159211
0.015923
0.0159261
0.0159311
0.0159396
0.011388
0.00652164
0.0038674
0.00245422
0.00163784
0.0011194
0.000772108
0.000536612
0.000375963
0.000266217
0.000191047
0.000139388
0.000103642
7.91642e-05
6.3727e-05
5.66344e-05
5.72604e-05
6.35642e-05
7.42941e-05
8.86155e-05
0.000105464
0.000124719
0.000144829
0.000166649
0.000187645
0.00020663
0.000227927
0.0159211
0.0159207
0.0159203
0.0159199
0.0159195
0.0159192
0.0159189
0.0159187
0.0159185
0.0159183
0.0159182
0.0159181
0.0159182
0.0159183
0.0159186
0.0159191
0.0159199
0.0159212
0.0159231
0.0159262
0.0159313
0.01594
0.0113841
0.00652087
0.0038665
0.00245284
0.00163676
0.00111885
0.000771969
0.000536696
0.000376197
0.000266566
0.000191463
0.000139832
0.000104098
7.97073e-05
6.44552e-05
5.80266e-05
5.90122e-05
6.65699e-05
7.82351e-05
9.36168e-05
0.000111568
0.000132055
0.000153351
0.000176429
0.000198667
0.000220841
0.000227703
0.0159211
0.0159207
0.0159203
0.0159199
0.0159195
0.0159192
0.0159189
0.0159186
0.0159184
0.0159183
0.0159182
0.0159181
0.0159182
0.0159183
0.0159186
0.0159191
0.01592
0.0159213
0.0159232
0.0159264
0.0159315
0.0159404
0.0114304
0.00654301
0.00387546
0.00245616
0.0016378
0.00111924
0.00077218
0.000536964
0.000376541
0.00026693
0.000191838
0.00014023
0.000104505
8.02183e-05
6.52832e-05
5.94573e-05
6.11813e-05
6.96749e-05
8.23164e-05
9.88131e-05
0.000117942
0.000139742
0.000162341
0.000186684
0.000210427
0.000233337
0.000223726
0.0159211
0.0159207
0.0159202
0.0159198
0.0159195
0.0159192
0.0159189
0.0159186
0.0159184
0.0159182
0.0159181
0.0159181
0.0159181
0.0159183
0.0159186
0.0159192
0.01592
0.0159213
0.0159233
0.0159266
0.0159318
0.0159408
0.0114466
0.0065562
0.00388451
0.00246159
0.00164127
0.00112165
0.000773795
0.00053806
0.000377291
0.000267473
0.000192246
0.000140568
0.000104817
8.06424e-05
6.60556e-05
6.05819e-05
6.33672e-05
7.2185e-05
8.64661e-05
0.000104122
0.000124458
0.000147599
0.000171542
0.000197137
0.000222475
0.000241993
0.000219739
0.0159211
0.0159206
0.0159202
0.0159198
0.0159194
0.0159191
0.0159188
0.0159186
0.0159184
0.0159182
0.0159181
0.0159181
0.0159181
0.0159183
0.0159186
0.0159192
0.0159201
0.0159214
0.0159235
0.0159267
0.015932
0.0159411
0.0114377
0.0065452
0.00387449
0.00245362
0.00163547
0.00111797
0.000771712
0.000537041
0.000376976
0.000267549
0.000192533
0.000140975
0.000105266
8.11985e-05
6.70497e-05
6.22243e-05
6.58681e-05
7.56459e-05
9.10911e-05
0.000109984
0.000131623
0.000156195
0.000181625
0.000208542
0.000236077
0.00023734
0.000215738
0.0159211
0.0159206
0.0159202
0.0159198
0.0159194
0.0159191
0.0159188
0.0159185
0.0159183
0.0159182
0.0159181
0.0159181
0.0159181
0.0159183
0.0159186
0.0159192
0.0159201
0.0159215
0.0159236
0.0159269
0.0159323
0.0159415
0.0114661
0.00656811
0.00388974
0.00246312
0.00164173
0.00112235
0.000774752
0.000539257
0.000378638
0.000268824
0.000193532
0.000141808
0.000106
8.20072e-05
6.80639e-05
6.40628e-05
6.80822e-05
7.93906e-05
9.51848e-05
0.000116371
0.000139505
0.000165632
0.000192871
0.000221048
0.00025178
0.000232838
0.000211903
0.0159211
0.0159206
0.0159202
0.0159198
0.0159194
0.0159191
0.0159188
0.0159185
0.0159183
0.0159182
0.0159181
0.015918
0.0159181
0.0159183
0.0159187
0.0159192
0.0159201
0.0159215
0.0159237
0.015927
0.0159325
0.0159419
0.0115091
0.00658341
0.00389346
0.00246303
0.0016406
0.00112143
0.000774286
0.000539088
0.000378723
0.000269073
0.000193868
0.000142203
0.00010643
8.26148e-05
6.91142e-05
6.58509e-05
7.07531e-05
8.31791e-05
0.000100171
0.000122857
0.000147547
0.000175217
0.000204439
0.000234252
0.000258398
0.000228455
0.000208191
0.0159211
0.0159206
0.0159201
0.0159197
0.0159194
0.015919
0.0159187
0.0159185
0.0159183
0.0159181
0.015918
0.015918
0.0159181
0.0159183
0.0159187
0.0159193
0.0159202
0.0159216
0.0159238
0.0159272
0.0159328
0.0159424
0.0115196
0.00660001
0.0039067
0.00247165
0.00164635
0.00112554
0.000777106
0.000541115
0.000380207
0.000270154
0.000194654
0.000142836
0.000106986
8.3308e-05
7.02581e-05
6.73846e-05
7.35783e-05
8.63778e-05
0.000105392
0.000129674
0.00015605
0.000185285
0.000217268
0.000248196
0.000253609
0.000224088
0.000204506
0.0159211
0.0159206
0.0159201
0.0159197
0.0159193
0.015919
0.0159187
0.0159184
0.0159182
0.0159181
0.015918
0.015918
0.0159181
0.0159183
0.0159187
0.0159193
0.0159202
0.0159217
0.0159239
0.0159274
0.0159331
0.0159428
0.0115157
0.00658694
0.00389532
0.00246352
0.00164093
0.00112243
0.000775682
0.000540644
0.000380357
0.000270656
0.000195303
0.000143547
0.000107727
8.42363e-05
7.16829e-05
6.95849e-05
7.68134e-05
9.08027e-05
0.000111307
0.000135857
0.000165536
0.000196672
0.000231541
0.000263733
0.000248919
0.000219841
0.000200907
0.0159211
0.0159205
0.0159201
0.0159197
0.0159193
0.0159189
0.0159187
0.0159184
0.0159182
0.0159181
0.015918
0.015918
0.0159181
0.0159183
0.0159187
0.0159193
0.0159203
0.0159218
0.015924
0.0159276
0.0159333
0.0159432
0.0115808
0.00663552
0.00392497
0.00248115
0.00165194
0.00112974
0.000780589
0.000544097
0.000382873
0.000272514
0.000196685
0.000144651
0.000108677
8.52925e-05
7.32116e-05
7.18867e-05
8.01543e-05
9.53344e-05
0.000117368
0.000143527
0.00017543
0.000208777
0.000246516
0.000278684
0.000244464
0.000215813
0.000197486
0.015921
0.0159205
0.01592
0.0159196
0.0159192
0.0159189
0.0159186
0.0159184
0.0159182
0.015918
0.015918
0.015918
0.0159181
0.0159183
0.0159187
0.0159193
0.0159203
0.0159218
0.0159242
0.0159278
0.0159336
0.0159436
0.0115942
0.00663304
0.00392131
0.00247821
0.00164975
0.00112852
0.000780067
0.000543858
0.000382841
0.00027264
0.000196873
0.000144909
0.000109025
8.5822e-05
7.44663e-05
7.40108e-05
8.27021e-05
9.98398e-05
0.000122291
0.000151259
0.00018389
0.000221324
0.000261888
0.000273412
0.000239961
0.000211804
0.000194055
0.015921
0.0159205
0.01592
0.0159196
0.0159192
0.0159189
0.0159186
0.0159183
0.0159181
0.015918
0.0159179
0.0159179
0.0159181
0.0159183
0.0159187
0.0159194
0.0159204
0.0159219
0.0159243
0.015928
0.0159339
0.0159441
0.0116159
0.00665586
0.00393607
0.00248694
0.00165534
0.00113263
0.000783195
0.000546378
0.000384945
0.000274395
0.000198275
0.000146084
0.000110089
8.70367e-05
7.62671e-05
7.67001e-05
8.65036e-05
0.000105051
0.000129131
0.00016018
0.000195692
0.000235515
0.000279013
0.000268143
0.000235437
0.000207837
0.000190608
0.015921
0.0159205
0.01592
0.0159196
0.0159192
0.0159188
0.0159185
0.0159183
0.0159181
0.015918
0.0159179
0.0159179
0.015918
0.0159183
0.0159187
0.0159194
0.0159204
0.015922
0.0159244
0.0159281
0.0159342
0.0159446
0.0116307
0.00665766
0.00393641
0.00248739
0.00165602
0.00113372
0.000784592
0.000547731
0.000386219
0.00027558
0.000199331
0.000147055
0.000111053
8.82207e-05
7.77827e-05
7.94718e-05
9.04629e-05
0.000110536
0.000136449
0.000169876
0.000208234
0.000248178
0.000297208
0.000263089
0.000231092
0.00020405
0.000187281
0.015921
0.0159204
0.01592
0.0159195
0.0159191
0.0159188
0.0159185
0.0159183
0.0159181
0.0159179
0.0159179
0.0159179
0.015918
0.0159183
0.0159187
0.0159194
0.0159205
0.0159221
0.0159245
0.0159283
0.0159345
0.015945
0.011705
0.00670589
0.00396334
0.00250256
0.00166499
0.00113961
0.000788625
0.000550573
0.000388325
0.000277221
0.000200552
0.000148039
0.000111975
8.9371e-05
7.9584e-05
8.22759e-05
9.44719e-05
0.000114959
0.000143768
0.000178161
0.000221031
0.0002633
0.000300928
0.000258127
0.000226815
0.000200358
0.000183992
0.015921
0.0159204
0.0159199
0.0159195
0.0159191
0.0159187
0.0159185
0.0159182
0.015918
0.0159179
0.0159179
0.0159179
0.015918
0.0159183
0.0159188
0.0159195
0.0159206
0.0159222
0.0159247
0.0159286
0.0159348
0.0159455
0.0117069
0.00670463
0.00396359
0.00250315
0.00166567
0.00114049
0.000789634
0.000551515
0.000389171
0.000278017
0.000201251
0.000148673
0.00011269
9.04243e-05
8.13724e-05
8.45616e-05
9.86437e-05
0.000120675
0.000152112
0.000188934
0.000234781
0.000279547
0.000295181
0.000253175
0.000222538
0.000196713
0.000180698
0.015921
0.0159204
0.0159199
0.0159194
0.015919
0.0159187
0.0159184
0.0159182
0.015918
0.0159179
0.0159178
0.0159179
0.015918
0.0159183
0.0159188
0.0159195
0.0159206
0.0159223
0.0159248
0.0159288
0.0159351
0.015946
0.0117321
0.00672407
0.00397543
0.00251059
0.0016708
0.00114454
0.000793262
0.000554527
0.000391684
0.000280159
0.000202975
0.000150145
0.000114081
9.20526e-05
8.37182e-05
8.80016e-05
0.000103552
0.000127332
0.000161573
0.000200912
0.000249972
0.000297457
0.000289527
0.000248317
0.000218326
0.000193143
0.000177421
0.0159209
0.0159204
0.0159198
0.0159194
0.015919
0.0159187
0.0159184
0.0159181
0.015918
0.0159178
0.0159178
0.0159178
0.015918
0.0159183
0.0159188
0.0159196
0.0159207
0.0159224
0.015925
0.015929
0.0159354
0.0159465
0.0117906
0.00675494
0.00397807
0.00251576
0.0016761
0.00114915
0.000796796
0.000557281
0.000393861
0.000281944
0.000204381
0.000151293
0.000115214
9.35107e-05
8.59458e-05
9.13572e-05
0.000108402
0.000134146
0.000171267
0.000213349
0.000262976
0.000316028
0.000284002
0.000243586
0.000214215
0.000189669
0.000174193
0.0159209
0.0159203
0.0159198
0.0159193
0.0159189
0.0159186
0.0159183
0.0159181
0.0159179
0.0159178
0.0159178
0.0159178
0.015918
0.0159183
0.0159188
0.0159196
0.0159208
0.0159225
0.0159251
0.0159292
0.0159358
0.015947
0.0118273
0.00673755
0.00398933
0.00252354
0.00168144
0.00115307
0.000799775
0.000559379
0.000395336
0.000283142
0.000205384
0.00015212
0.000116164
9.48925e-05
8.81836e-05
9.48086e-05
0.000113545
0.000141626
0.000179664
0.00022294
0.000276012
0.000331995
0.000278528
0.000238933
0.000210181
0.000186273
0.000171013
0.0159209
0.0159203
0.0159198
0.0159193
0.0159189
0.0159186
0.0159183
0.015918
0.0159179
0.0159178
0.0159177
0.0159178
0.015918
0.0159183
0.0159188
0.0159196
0.0159208
0.0159226
0.0159253
0.0159294
0.0159361
0.0159475
0.0117463
0.00673662
0.00399069
0.00252638
0.00168459
0.00115619
0.000802706
0.000562002
0.000397586
0.000285108
0.000206979
0.000153412
0.000117327
9.66303e-05
9.07892e-05
9.8681e-05
0.000118474
0.000147512
0.000188059
0.000235956
0.000292861
0.000325217
0.000272972
0.000234228
0.000206086
0.000182834
0.000167748
0.0159209
0.0159203
0.0159197
0.0159193
0.0159189
0.0159185
0.0159182
0.015918
0.0159178
0.0159177
0.0159177
0.0159178
0.015918
0.0159183
0.0159189
0.0159197
0.0159209
0.0159227
0.0159254
0.0159297
0.0159365
0.015948
0.0117583
0.00675439
0.00400455
0.00253666
0.00169227
0.00116215
0.000807535
0.000565764
0.000400463
0.000287436
0.000208849
0.000154907
0.000118742
9.80943e-05
9.27303e-05
0.000101584
0.000123268
0.000155547
0.000199085
0.000250481
0.000311736
0.000318521
0.000267464
0.000229573
0.000202025
0.000179417
0.000164479
0.0159209
0.0159202
0.0159197
0.0159192
0.0159188
0.0159185
0.0159182
0.015918
0.0159178
0.0159177
0.0159177
0.0159178
0.015918
0.0159183
0.0159189
0.0159197
0.015921
0.0159228
0.0159256
0.0159299
0.0159368
0.0159486
0.0118261
0.00678628
0.00402174
0.00254751
0.00169956
0.00116727
0.000811349
0.000568618
0.000402611
0.000289178
0.000210269