/*--------------------------------*- C++ -*----------------------------------*\
| =========                 |                                                 |
| \\      /  F ield         | OpenFOAM: The Open Source CFD Toolbox           |
|  \\    /   O peration     | Version:  2.3.0                                 |
|   \\  /    A nd           | Web:      www.OpenFOAM.org                      |
|    \\/     M anipulation  |                                                 |
\*---------------------------------------------------------------------------*/
FoamFile
{
    version     2.0;
    format      ascii;
    class       volScalarField;
    location    "100";
    object      omega;
}
// * * * * * * * * * * * * * * * * * * * * * * * * * * * * * * * * * * * * * //

dimensions      [0 0 -1 0 0 0 0];

internalField   nonuniform List<scalar> 
14137
(
0.254689
0.25463
0.254572
0.254514
0.254457
0.2544
0.254345
0.254289
0.254235
0.254181
0.254128
0.254076
0.254026
0.253976
0.253928
0.253882
0.253839
0.253801
0.253768
0.253745
0.253737
0.253759
0.25384
0.254038
0.254437
0.255202
0.256665
0.259445
0.264532
0.273515
0.28916
0.316096
0.361741
0.437552
0.560411
0.753744
1.04317
1.44352
1.9756
2.67013
3.55425
4.64258
5.93258
7.40286
9.01673
10.7247
12.4765
14.2173
15.9163
0.254688
0.254628
0.254569
0.254511
0.254454
0.254397
0.25434
0.254285
0.25423
0.254176
0.254123
0.254071
0.25402
0.253971
0.253923
0.253877
0.253834
0.253796
0.253764
0.253741
0.253735
0.253759
0.253842
0.254045
0.254452
0.255228
0.25671
0.25952
0.264653
0.273699
0.289416
0.316404
0.362016
0.43756
0.559625
0.751049
1.03628
1.42935
1.95038
2.62827
3.48791
4.54178
5.7859
7.19845
8.74344
10.3731
12.0398
13.6893
15.3055
0.254687
0.254627
0.254567
0.254508
0.25445
0.254392
0.254336
0.25428
0.254225
0.254171
0.254117
0.254065
0.254014
0.253965
0.253917
0.253872
0.253829
0.253791
0.253759
0.253738
0.253732
0.253758
0.253843
0.254051
0.254464
0.255251
0.256749
0.259584
0.264758
0.273861
0.289639
0.31666
0.362203
0.437418
0.558593
0.748
1.02892
1.41464
1.92446
2.5855
3.42048
4.43981
5.63796
6.99268
8.46883
10.021
11.6044
13.167
14.7019
0.254686
0.254625
0.254565
0.254505
0.254446
0.254388
0.254331
0.254275
0.25422
0.254165
0.254112
0.254059
0.254008
0.253959
0.253911
0.253866
0.253824
0.253786
0.253755
0.253734
0.25373
0.253757
0.253846
0.254059
0.25448
0.25528
0.256798
0.259666
0.264886
0.274051
0.289896
0.316957
0.36243
0.437292
0.557505
0.744727
1.02109
1.39912
1.89734
2.54106
3.35091
4.33561
5.48871
6.7879
8.19879
9.67777
11.1825
12.6627
14.1193
0.254685
0.254623
0.254562
0.254502
0.254443
0.254384
0.254327
0.25427
0.254214
0.25416
0.254106
0.254054
0.254003
0.253953
0.253906
0.253861
0.253819
0.253782
0.253751
0.253731
0.253728
0.253757
0.253849
0.254067
0.254497
0.255311
0.25685
0.259751
0.265023
0.274257
0.290177
0.317289
0.362717
0.437278
0.556625
0.741834
1.01393
1.38478
1.87207
2.49938
3.28537
4.23678
5.34591
6.59043
7.93712
9.3447
10.7731
12.175
13.5578
0.254684
0.254621
0.25456
0.254499
0.254439
0.25438
0.254323
0.254266
0.25421
0.254155
0.254101
0.254049
0.253998
0.253949
0.253901
0.253856
0.253815
0.253778
0.253748
0.253728
0.253727
0.253757
0.253852
0.254075
0.254512
0.255337
0.256895
0.259825
0.265142
0.274437
0.290428
0.317594
0.362992
0.4373
0.555894
0.739306
1.00755
1.37183
1.84903
2.46111
3.22479
4.14542
5.21425
6.40857
7.69563
9.03596
10.3919
11.7177
13.026
0.254684
0.254621
0.254558
0.254497
0.254437
0.254378
0.25432
0.254262
0.254206
0.254151
0.254098
0.254045
0.253994
0.253945
0.253897
0.253853
0.253811
0.253775
0.253745
0.253726
0.253725
0.253758
0.253855
0.254082
0.254526
0.255361
0.256935
0.25989
0.265245
0.274596
0.290651
0.317872
0.363261
0.437376
0.555346
0.737207
1.00201
1.36032
1.82817
2.42585
3.16809
4.05852
5.08755
6.23264
7.46208
8.73808
10.0245
11.2814
12.5226
0.254683
0.254619
0.254556
0.254495
0.254434
0.254375
0.254316
0.254259
0.254203
0.254148
0.254094
0.254041
0.25399
0.253941
0.253894
0.253849
0.253808
0.253772
0.253743
0.253724
0.253725
0.253758
0.253858
0.25409
0.25454
0.255386
0.256976
0.259958
0.265356
0.274766
0.290897
0.318191
0.363606
0.437591
0.555047
0.735536
0.997212
1.35009
1.80946
2.39419
3.11732
3.98058
4.97321
6.07271
7.2482
8.46466
9.68583
10.8788
12.0355
17.5141
19.3393
21.4389
23.8589
26.6671
29.9509
33.8183
38.4092
43.9085
50.5645
58.7153
68.827
81.5614
97.9986
117.73
141.427
169.881
204.05
245.115
294.525
354.139
426.145
513.873
16.8603
18.6268
20.664
23.0198
25.7571
28.9617
32.7431
37.2421
42.6441
49.1964
57.2365
67.2331
79.8565
96.2049
115.86
139.502
167.932
202.122
243.269
292.844
352.742
425.166
513.563
620.403
912.042
16.2125
17.9235
19.9033
22.1991
24.8693
27.9978
31.6932
36.0954
41.3904
47.8279
55.747
65.618
78.1169
94.3558
113.91
137.467
165.837
200.004
241.183
290.861
350.969
423.71
512.657
620.05
756.332
913.865
1139.5
1355.08
15.5843
17.239
19.1597
21.3931
23.995
27.0489
30.6627
34.9744
40.1679
46.4925
54.2894
64.0323
76.4024
92.5251
111.972
135.439
163.746
197.892
239.112
288.916
349.28
422.421
512.07
620.259
758.135
916.753
1146.35
1362.99
1806.95
14.9758
16.578
18.4435
20.6171
23.1514
26.1298
29.6602
33.88
38.9719
45.1839
52.8572
62.4682
74.7034
90.6999
110.029
133.392
161.621
195.729
236.973
286.885
347.49
421.001
511.331
620.283
759.853
919.438
1153.05
1371.83
1828.25
2142.84
14.3945
15.9395
17.746
19.8577
22.325
25.2298
28.6788
32.8078
37.7988
43.8986
51.4483
60.9259
73.0228
88.8872
108.09
131.342
159.484
193.543
234.794
284.796
345.621
419.482
510.467
620.127
761.349
921.829
1159.27
1381.53
1847.72
2178.19
3081.73
13.8497
15.3537
17.1122
19.1679
21.573
24.4095
27.7826
31.8274
36.7248
42.721
50.1566
59.5108
71.4796
87.2223
106.314
129.472
157.551
191.592
232.897
283.049
344.183
418.509
510.347
620.932
764.272
925.994
1170.14
1401.05
1871.48
2229.31
3134.93
4139.25
13.3083
14.7597
16.4722
18.4786
20.8259
23.5964
26.8953
30.8563
35.6599
41.5515
48.8715
58.0996
69.9357
85.5488
104.518
127.568
155.566
189.566
230.894
281.152
342.54
417.245
509.815
621.153
766.34
929.165
1178.29
1417.1
1891.22
2269.93
3177.67
4179.4
4755.07
0.254682
0.254618
0.254554
0.254492
0.254431
0.254371
0.254313
0.254255
0.254199
0.254144
0.25409
0.254037
0.253986
0.253937
0.25389
0.253846
0.253805
0.253769
0.25374
0.253722
0.253724
0.253759
0.253861
0.254097
0.254555
0.255415
0.257032
0.260065
0.265562
0.275149
0.291595
0.319444
0.365814
0.441404
0.561475
0.746004
1.01294
1.37245
1.84105
2.43837
3.17764
4.06031
5.07488
6.19752
7.39599
8.63436
9.87455
11.0965
12.2408
0.254682
0.254616
0.254553
0.25449
0.254429
0.254368
0.25431
0.254252
0.254195
0.25414
0.254086
0.254033
0.253982
0.253933
0.253886
0.253842
0.253801
0.253766
0.253737
0.25372
0.253722
0.253759
0.253864
0.254105
0.25457
0.255445
0.257092
0.260182
0.265788
0.275575
0.292373
0.320838
0.368272
0.445655
0.568641
0.757571
1.03005
1.39648
1.87447
2.48412
3.23847
4.13831
5.17112
6.31226
7.52827
8.7858
10.0358
11.3075
12.4334
0.254681
0.254615
0.254551
0.254488
0.254426
0.254365
0.254306
0.254248
0.254191
0.254136
0.254082
0.254029
0.253978
0.253929
0.253882
0.253838
0.253798
0.253762
0.253734
0.253718
0.253721
0.253759
0.253867
0.254112
0.254585
0.255476
0.25715
0.260296
0.266008
0.275992
0.293142
0.322234
0.370766
0.45002
0.576085
0.76964
1.0479
1.42176
1.90999
2.53314
3.3041
4.22324
5.27711
6.44066
7.67805
8.96118
10.2255
11.5398
12.6758
0.25468
0.254613
0.254548
0.254485
0.254423
0.254362
0.254302
0.254244
0.254187
0.254131
0.254077
0.254025
0.253974
0.253925
0.253878
0.253834
0.253794
0.253759
0.253732
0.253716
0.25372
0.25376
0.25387
0.25412
0.254602
0.255508
0.257212
0.260416
0.26624
0.276426
0.29394
0.323675
0.373323
0.454472
0.583647
0.781874
1.06598
1.44755
1.94653
2.58396
3.37261
4.3124
5.38887
6.57696
7.83773
9.14725
10.431
11.771
12.9305
0.254679
0.254612
0.254546
0.254482
0.25442
0.254358
0.254298
0.25424
0.254183
0.254127
0.254073
0.25402
0.253969
0.25392
0.253874
0.25383
0.25379
0.253755
0.253729
0.253714
0.253719
0.25376
0.253873
0.254128
0.254618
0.25554
0.257275
0.260538
0.266474
0.276868
0.294752
0.325143
0.375934
0.459023
0.591379
0.794321
1.08427
1.47369
1.9837
2.63578
3.4426
4.40377
5.50375
6.71749
8.00326
9.33869
10.6462
12.0144
13.1947
0.254679
0.254611
0.254544
0.25448
0.254417
0.254355
0.254295
0.254236
0.254179
0.254123
0.254068
0.254016
0.253965
0.253916
0.253869
0.253826
0.253786
0.253752
0.253726
0.253711
0.253718
0.25376
0.253876
0.254135
0.254634
0.255571
0.257335
0.260656
0.266703
0.277301
0.295553
0.326599
0.378533
0.463565
0.599099
0.806682
1.10234
1.49952
2.02042
2.68685
3.5113
4.493
5.61541
6.85332
8.16339
9.52267
10.8542
12.2519
13.4528
0.254678
0.254609
0.254542
0.254477
0.254413
0.254351
0.254291
0.254232
0.254174
0.254118
0.254064
0.254011
0.25396
0.253911
0.253865
0.253822
0.253782
0.253748
0.253723
0.253709
0.253716
0.253761
0.253879
0.254143
0.254651
0.255604
0.2574
0.260782
0.266947
0.277761
0.296403
0.328138
0.381276
0.468352
0.607215
0.819583
1.12112
1.52642
2.05867
2.74002
3.58273
4.58572
5.73148
6.99441
8.33023
9.71476
11.0715
12.4995
13.7232
0.254677
0.254607
0.25454
0.254474
0.25441
0.254347
0.254286
0.254227
0.254169
0.254113
0.254059
0.254006
0.253955
0.253906
0.25386
0.253817
0.253778
0.253745
0.253719
0.253707
0.253715
0.253761
0.253883
0.254152
0.254668
0.255638
0.257467
0.260913
0.267199
0.278238
0.297282
0.329733
0.384114
0.473299
0.615583
0.832791
1.1403
1.55394
2.09789
2.79462
3.65619
4.68116
5.85127
7.14037
8.50342
9.91481
11.2981
12.7575
14.007
0.254676
0.254606
0.254537
0.254471
0.254406
0.254343
0.254282
0.254223
0.254165
0.254108
0.254054
0.254001
0.25395
0.253902
0.253856
0.253813
0.253774
0.253741
0.253716
0.253704
0.253713
0.253761
0.253886
0.25416
0.254685
0.255672
0.257533
0.261041
0.267448
0.278708
0.298151
0.331308
0.386919
0.478183
0.623817
0.845654
1.15886
1.58055
2.13576
2.84714
3.72657
4.77231
5.96536
7.27897
8.66791
10.1044
11.5138
13.0007
14.2799
0.254675
0.254604
0.254535
0.254468
0.254403
0.25434
0.254278
0.254218
0.25416
0.254104
0.254049
0.253996
0.253945
0.253897
0.253851
0.253808
0.25377
0.253737
0.253713
0.253702
0.253712
0.253761
0.253888
0.254167
0.254701
0.255705
0.257597
0.261167
0.267693
0.279171
0.29901
0.33287
0.389705
0.483043
0.63201
0.858385
1.17725
1.60707
2.17369
2.9
3.79775
4.86499
6.08221
7.42187
8.83877
10.3027
11.7405
13.2564
14.5666
0.254674
0.254602
0.254532
0.254465
0.254399
0.254335
0.254273
0.254213
0.254155
0.254098
0.254044
0.253991
0.25394
0.253892
0.253846
0.253804
0.253765
0.253733
0.25371
0.253699
0.25371
0.253762
0.253892
0.254176
0.25472
0.255741
0.257668
0.261306
0.267961
0.279678
0.299946
0.334565
0.39272
0.488286
0.640806
0.871956
1.19687
1.6354
2.21421
2.95644
3.87371
4.96364
6.20635
7.57346
9.01993
10.513
11.9811
13.5285
14.8711
0.254673
0.2546
0.254529
0.254461
0.254395
0.254331
0.254269
0.254208
0.25415
0.254093
0.254038
0.253985
0.253935
0.253887
0.253841
0.253799
0.253761
0.253729
0.253706
0.253696
0.253709
0.253762
0.253895
0.254185
0.254738
0.255777
0.257739
0.261443
0.268227
0.280181
0.300872
0.336241
0.395693
0.493439
0.649392
0.885026
1.21564
1.66244
2.25273
3.00981
3.94518
5.05616
6.32259
7.71514
9.18937
10.7096
12.2067
13.7815
15.1589
0.254672
0.254598
0.254527
0.254458
0.254391
0.254327
0.254264
0.254203
0.254145
0.254088
0.254033
0.25398
0.25393
0.253881
0.253836
0.253794
0.253757
0.253725
0.253703
0.253694
0.253707
0.253762
0.253898
0.254193
0.254756
0.255812
0.257807
0.261577
0.268486
0.280671
0.30178
0.337886
0.398617
0.498511
0.657823
0.897791
1.23404
1.68911
2.29095
3.06307
4.01693
5.14961
6.4408
7.86016
9.36394
10.9133
12.442
14.0456
15.4606
0.254671
0.254596
0.254524
0.254455
0.254387
0.254322
0.254259
0.254198
0.254139
0.254082
0.254027
0.253975
0.253924
0.253876
0.253831
0.253789
0.253752
0.253721
0.253699
0.253691
0.253706
0.253762
0.253902
0.254202
0.254774
0.255849
0.257878
0.261716
0.268755
0.28118
0.302719
0.339586
0.401634
0.503736
0.666467
0.910792
1.25282
1.71637
2.33003
3.11748
4.09022
5.24506
6.56162
8.00843
9.54264
11.1218
12.6833
14.3163
15.769
0.254669
0.254594
0.254521
0.254451
0.254383
0.254317
0.254254
0.254193
0.254134
0.254077
0.254022
0.253969
0.253918
0.25387
0.253825
0.253784
0.253747
0.253717
0.253695
0.253688
0.253704
0.253763
0.253905
0.254211
0.254794
0.255887
0.257952
0.261861
0.269035
0.281709
0.303694
0.341345
0.404744
0.509099
0.675268
0.923919
1.27177
1.74387
2.36939
3.1722
4.16383
5.34079
6.68276
8.15699
9.72176
11.3306
12.9251
14.5878
16.0786
0.254668
0.254592
0.254518
0.254447
0.254379
0.254313
0.254249
0.254187
0.254128
0.254071
0.254016
0.253963
0.253913
0.253865
0.25382
0.253779
0.253743
0.253713
0.253692
0.253685
0.253703
0.253763
0.253908
0.25422
0.254813
0.255925
0.258026
0.262003
0.269311
0.282229
0.304652
0.343073
0.407799
0.514356
0.683835
0.936599
1.29011
1.77056
2.4077
3.22557
4.23582
5.43471
6.80212
8.3039
9.89974
11.5388
13.1674
14.8607
16.3907
0.254668
0.25459
0.254515
0.254444
0.254375
0.254308
0.254244
0.254182
0.254122
0.254065
0.25401
0.253957
0.253907
0.253859
0.253815
0.253774
0.253738
0.253708
0.253688
0.253683
0.253701
0.253763
0.253912
0.254229
0.254831
0.255961
0.258096
0.262141
0.269578
0.282736
0.305588
0.344764
0.41079
0.519504
0.692187
0.94893
1.30805
1.79687
2.44569
3.2788
4.30811
5.52963
6.92359
8.45431
10.0831
11.7542
13.4192
15.1463
16.716
0.254666
0.254587
0.254512
0.254439
0.25437
0.254303
0.254238
0.254176
0.254116
0.254059
0.254004
0.253951
0.253901
0.253853
0.253809
0.253768
0.253733
0.253704
0.253684
0.25368
0.253699
0.253763
0.253915
0.254239
0.254851
0.256001
0.258174
0.262292
0.26987
0.283287
0.306601
0.346587
0.414003
0.525006
0.701034
0.96193
1.32697
1.82451
2.48542
3.33414
4.38285
5.62716
7.04777
8.60718
10.2687
11.9712
13.6719
15.4329
17.0407
0.254664
0.254584
0.254508
0.254435
0.254365
0.254297
0.254232
0.25417
0.25411
0.254052
0.253997
0.253945
0.253894
0.253847
0.253803
0.253763
0.253728
0.253699
0.253681
0.253677
0.253698
0.253764
0.253919
0.254249
0.254872
0.256041
0.258252
0.262443
0.270161
0.283834
0.307607
0.348393
0.417176
0.530418
0.709658
0.97455
1.34541
1.85157
2.52447
3.38877
4.457
5.72442
7.17233
8.76122
10.4567
12.1918
13.9295
15.7273
17.3736
0.254663
0.254582
0.254505
0.254431
0.25436
0.254292
0.254227
0.254164
0.254104
0.254046
0.253991
0.253938
0.253888
0.253841
0.253797
0.253758
0.253723
0.253695
0.253677
0.253674
0.253696
0.253764
0.253923
0.254258
0.254891
0.25608
0.258327
0.262589
0.270443
0.284368
0.308588
0.350156
0.420276
0.535699
0.718036
0.986805
1.36339
1.878
2.56279
3.44259
4.53042
5.82111
7.29679
8.91571
10.6461
12.4147
14.1907
16.0279
17.7126
0.254662
0.25458
0.254501
0.254427
0.254355
0.254287
0.254221
0.254158
0.254098
0.25404
0.253985
0.253932
0.253882
0.253835
0.253791
0.253752
0.253718
0.25369
0.253673
0.253671
0.253694
0.253764
0.253926
0.254268
0.254912
0.256119
0.258404
0.262737
0.27073
0.28491
0.309585
0.351946
0.423421
0.541043
0.726458
0.999132
1.38156
1.90484
2.60173
3.49735
4.60526
5.91981
7.42406
9.07378
10.8401
12.6432
14.4583
16.3376
18.0599
0.25466
0.254576
0.254497
0.254422
0.254349
0.25428
0.254214
0.254151
0.254091
0.254033
0.253978
0.253925
0.253875
0.253829
0.253785
0.253746
0.253712
0.253685
0.253669
0.253668
0.253693
0.253765
0.253931
0.254278
0.254933
0.256162
0.258485
0.262896
0.271035
0.285484
0.310637
0.353831
0.426723
0.546628
0.735242
1.01202
1.40055
1.93294
2.64255
3.55478
4.68385
6.02345
7.55788
9.23988
11.0443
12.8834
14.7395
16.6647
18.4241
0.254658
0.254574
0.254493
0.254417
0.254344
0.254275
0.254208
0.254145
0.254084
0.254026
0.253971
0.253918
0.253869
0.253822
0.253779
0.25374
0.253707
0.253681
0.253665
0.253665
0.253691
0.253765
0.253934
0.254288
0.254955
0.256203
0.258566
0.26305
0.271333
0.286045
0.311666
0.355672
0.429946
0.552058
0.743719
1.02447
1.41907
1.96042
2.68272
3.61156
4.76201
6.12706
7.69245
9.4076
11.2515
13.1279
15.0263
17.0014
18.7968
0.254657
0.254571
0.25449
0.254413
0.254339
0.254269
0.254202
0.254138
0.254077
0.254019
0.253964
0.253912
0.253862
0.253816
0.253773
0.253735
0.253702
0.253676
0.253661
0.253662
0.253689
0.253766
0.253938
0.254298
0.254975
0.256244
0.258643
0.2632
0.271623
0.286591
0.312666
0.357463
0.433074
0.557312
0.751843
1.0364
1.43689
1.98695
2.7216
3.66666
4.83808
6.22811
7.82408
9.57187
11.4548
13.3684
15.3081
17.3349
19.1683
0.254655
0.254568
0.254485
0.254407
0.254333
0.254262
0.254195
0.254131
0.25407
0.254012
0.253957
0.253904
0.253855
0.253809
0.253767
0.253729
0.253696
0.253671
0.253657
0.253659
0.253688
0.253766
0.253943
0.254309
0.254998
0.256288
0.258727
0.263362
0.271933
0.287174
0.313732
0.359366
0.436393
0.562864
0.760396
1.04899
1.45573
2.01498
2.76254
3.72444
4.91754
6.33313
7.96037
9.74112
11.6635
13.6146
15.5946
17.676
19.5563
0.254653
0.254564
0.254481
0.254402
0.254327
0.254256
0.254188
0.254124
0.254063
0.254004
0.253949
0.253897
0.253848
0.253802
0.25376
0.253722
0.25369
0.253666
0.253652
0.253655
0.253686
0.253767
0.253947
0.25432
0.25502
0.256332
0.258813
0.263526
0.272247
0.287764
0.314811
0.361287
0.439735
0.568425
0.768965
1.06167
1.47475
2.04345
2.80436
3.78379
4.99968
6.44227
8.1028
9.91873
11.8833
13.875
15.9073
18.0579
19.9623
0.254651
0.254561
0.254476
0.254396
0.254321
0.254249
0.254181
0.254117
0.254055
0.253997
0.253942
0.25389
0.253841
0.253795
0.253753
0.253716
0.253685
0.253661
0.253648
0.253652
0.253684
0.253767
0.253951
0.254331
0.255043
0.256375
0.258895
0.263683
0.27255
0.288333
0.315851
0.363142
0.442962
0.573778
0.777183
1.07388
1.49325
2.07124
2.84541
3.84233
5.08109
6.55082
8.24501
10.0968
12.1038
14.1412
16.232
18.4445
20.3694
0.25465
0.254558
0.254472
0.254391
0.254315
0.254243
0.254174
0.254109
0.254048
0.25399
0.253934
0.253882
0.253833
0.253788
0.253747
0.25371
0.253679
0.253656
0.253644
0.253649
0.253683
0.253768
0.253955
0.254342
0.255065
0.256419
0.258979
0.263844
0.272858
0.288912
0.316908
0.365024
0.446227
0.579165
0.785427
1.08618
1.51194
2.0994
2.88707
3.90177
5.16389
6.66139
8.38995
10.2786
12.3285
14.4268
16.5621
18.8381
20.7812
0.254647
0.254554
0.254466
0.254385
0.254308
0.254235
0.254166
0.254101
0.25404
0.253981
0.253926
0.253874
0.253826
0.253781
0.25374
0.253704
0.253673
0.253651
0.25364
0.253646
0.253681
0.253769
0.25396
0.254354
0.255089
0.256466
0.259068
0.264015
0.273185
0.289524
0.318025
0.367012
0.449675
0.584844
0.794134
1.09925
1.53187
2.12945
2.93151
3.96515
5.25207
6.77891
8.5436
10.4713
12.5808
14.7309
16.9078
19.2479
21.2077
0.254645
0.25455
0.254461
0.254379
0.254301
0.254228
0.254159
0.254093
0.254032
0.253973
0.253918
0.253867
0.253818
0.253774
0.253733
0.253697
0.253667
0.253646
0.253635
0.253643
0.25368
0.253769
0.253965
0.254365
0.255113
0.256512
0.259157
0.264185
0.273509
0.290131
0.319129
0.36897
0.453058
0.590393
0.802595
1.11201
1.55144
2.15913
2.97561
4.02836
5.34042
6.89738
8.69891
10.6746
12.8403
15.0417
17.2615
19.6652
21.643
0.254643
0.254546
0.254457
0.254373
0.254294
0.254221
0.254151
0.254086
0.254024
0.253965
0.25391
0.253859
0.253811
0.253766
0.253726
0.253691
0.253661
0.25364
0.253631
0.25364
0.253678
0.25377
0.253969
0.254377
0.255136
0.256557
0.259242
0.264346
0.273818
0.29071
0.320186
0.370848
0.456303
0.5957
0.810685
1.12428
1.57039
2.18802
3.01874
4.09044
5.42747
7.01447
8.85241
10.8807
13.0974
15.3512
17.6128
20.08
22.0762
0.25464
0.254542
0.254451
0.254366
0.254287
0.254213
0.254143
0.254077
0.254015
0.253957
0.253902
0.253851
0.253803
0.253759
0.253719
0.253684
0.253655
0.253635
0.253627
0.253636
0.253676
0.253771
0.253975
0.254389
0.255162
0.256606
0.259335
0.264523
0.274155
0.29134
0.321332
0.372881
0.459809
0.601416
0.819422
1.13762
1.59093
2.21927
3.06527
4.15718
5.52072
7.13974
9.02473
11.1063
13.3682
15.6771
17.9829
20.5113
22.5291
0.254638
0.254537
0.254445
0.254359
0.254279
0.254205
0.254134
0.254069
0.254007
0.253948
0.253893
0.253842
0.253795
0.253751
0.253711
0.253677
0.253649
0.25363
0.253622
0.253633
0.253675
0.253772
0.25398
0.254402
0.255187
0.256655
0.259429
0.264701
0.274494
0.291973
0.322482
0.374918
0.463318
0.607128
0.828184
1.15109
1.61181
2.25121
3.11306
4.22605
5.61728
7.27393
9.21138
11.3421
13.6505
16.0173
18.371
20.9579
23.0038
0.254635
0.254533
0.254439
0.254352
0.254272
0.254197
0.254126
0.25406
0.253998
0.25394
0.253885
0.253834
0.253787
0.253743
0.253704
0.25367
0.253643
0.253624
0.253618
0.25363
0.253673
0.253773
0.253985
0.254414
0.255213
0.256704
0.259521
0.264876
0.274825
0.292591
0.323606
0.376907
0.466736
0.612664
0.836679
1.16423
1.63229
2.28265
3.16026
4.29432
5.71316
7.41163
9.39824
11.5786
13.9337
16.3589
18.7614
21.405
23.4838
0.254633
0.254528
0.254433
0.254345
0.254264
0.254188
0.254118
0.254051
0.253989
0.253931
0.253876
0.253825
0.253778
0.253735
0.253697
0.253663
0.253637
0.253619
0.253613
0.253627
0.253672
0.253774
0.25399
0.254426
0.255238
0.256752
0.259613
0.26505
0.275156
0.29321
0.324732
0.378899
0.470161
0.618208
0.845223
1.17752
1.6531
2.3147
3.20851
4.36431
5.81199
7.56004
9.59041
11.8221
14.2247
16.7095
19.163
21.8615
23.9797
0.254629
0.254523
0.254426
0.254337
0.254255
0.254179
0.254108
0.254042
0.25398
0.253921
0.253867
0.253816
0.25377
0.253727
0.253689
0.253656
0.25363
0.253613
0.253609
0.253623
0.25367
0.253775
0.253996
0.25444
0.255265
0.256805
0.259713
0.265239
0.275515
0.29388
0.325947
0.381047
0.473844
0.624162
0.854428
1.19187
1.67555
2.34919
3.26026
4.43915
5.92664
7.71757
9.79325
12.078
14.5297
17.0752
19.5827
22.3329
24.4986
0.254626
0.254518
0.254419
0.25433
0.254247
0.25417
0.254099
0.254032
0.25397
0.253912
0.253858
0.253807
0.253761
0.253719
0.253681
0.253649
0.253624
0.253608
0.253604
0.25362
0.253669
0.253776
0.254001
0.254454
0.255292
0.256857
0.259811
0.265425
0.275867
0.294534
0.327134
0.383144
0.477435
0.629932
0.863413
1.20598
1.69779
2.38356
3.31212
4.51673
6.04546
7.87874
10.0011
12.3406
14.8434
17.4507
20.0154
22.8167
25.0388
0.254623
0.254513
0.254413
0.254322
0.254239
0.254161
0.25409
0.254023
0.253961
0.253903
0.253849
0.253799
0.253753
0.253711
0.253674
0.253642
0.253618
0.253602
0.253599
0.253617
0.253667
0.253778
0.254007
0.254467
0.255319
0.256907
0.259907
0.265607
0.276211
0.295174
0.328294
0.385194
0.480951
0.63557
0.872235
1.21994
1.71992
2.41794
3.36419
4.59815
6.16622
8.0428
10.2129
12.6085
15.1639
17.8338
20.4579
23.3102
25.5967
0.25462
0.254507
0.254405
0.254313
0.254229
0.254152
0.25408
0.254013
0.253951
0.253893
0.253839
0.253789
0.253744
0.253702
0.253666
0.253635
0.253611
0.253596
0.253595
0.253614
0.253666
0.253779
0.254013
0.254481
0.255347
0.256962
0.260011
0.265804
0.276583
0.295864
0.329544
0.387401
0.484727
0.64165
0.881714
1.23493
1.74362
2.45461
3.42113
4.68905
6.29358
8.21489
10.4339
12.8864
15.4959
18.2281
20.9129
23.8158
26.1729
0.254616
0.2545
0.254397
0.254305
0.25422
0.254142
0.25407
0.254003
0.25394
0.253883
0.253829
0.25378
0.253735
0.253694
0.253658
0.253627
0.253604
0.25359
0.25359
0.25361
0.253665
0.253781
0.254019
0.254496
0.255377
0.257018
0.260116
0.266004
0.27696
0.296564
0.330813
0.38964
0.488561
0.647843
0.891447
1.25037
1.76816
2.49276
3.4854
4.78527
6.4284
8.39698
10.6678
13.1804
15.8481
18.6453
21.3961
24.3513
26.7917
0.254612
0.254494
0.25439
0.254296
0.25421
0.254132
0.254059
0.253992
0.25393
0.253873
0.253819
0.25377
0.253725
0.253685
0.25365
0.25362
0.253598
0.253585
0.253585
0.253607
0.253663
0.253782
0.254026
0.25451
0.255405
0.257073
0.26022
0.2662
0.27733
0.297249
0.332056
0.391837
0.492328
0.653944
0.901093
1.26579
1.79282
2.53248
3.55233
4.88426
6.56743
8.58517
10.9101
13.4849
16.214
19.0782
21.899
24.9095
27.4426
0.254608
0.254488
0.254382
0.254287
0.2542
0.254122
0.254049
0.253982
0.25392
0.253862
0.253809
0.253761
0.253716
0.253676
0.253642
0.253613
0.253591
0.253579
0.253581
0.253604
0.253662
0.253784
0.254032
0.254525
0.255435
0.257129
0.260326
0.2664
0.277707
0.297949
0.333326
0.394079
0.49617
0.660175
0.910972
1.28161
1.81815
2.57576
3.62159
4.98656
6.7109
8.77886
11.1591
13.7968
16.5893
19.5209
22.4132
25.4821
28.1119
0.254603
0.25448
0.254373
0.254277
0.25419
0.254111
0.254038
0.253971
0.253909
0.253852
0.253799
0.253751
0.253707
0.253667
0.253633
0.253605
0.253584
0.253573
0.253576
0.253601
0.253661
0.253786
0.254039
0.25454
0.255466
0.257189
0.260439
0.266614
0.278111
0.298697
0.334681
0.39647
0.500261
0.666815
0.92152
1.29849
1.8464
2.62405
3.69538
5.09495
6.86212
8.98213
11.4195
14.1216
16.9794
19.9794
22.9453
26.0762
28.8066
0.254599
0.254473
0.254364
0.254267
0.254179
0.2541
0.254027
0.25396
0.253898
0.253841
0.253789
0.253741
0.253697
0.253658
0.253625
0.253597
0.253577
0.253567
0.253571
0.253597
0.25366
0.253788
0.254046
0.254556
0.255497
0.257248
0.260551
0.266825
0.278508
0.299432
0.336011
0.398818
0.504276
0.673349
0.93196
1.31529
1.87579
2.67321
3.77069
5.20586
7.01729
9.1909
11.6873
14.4553
17.3811
20.4515
23.4944
26.6925
29.528
0.254595
0.254466
0.254355
0.254257
0.254169
0.254089
0.254016
0.253949
0.253887
0.25383
0.253778
0.253731
0.253688
0.253649
0.253616
0.25359
0.25357
0.253561
0.253567
0.253594
0.253659
0.253789
0.254053
0.254571
0.255527
0.257305
0.26066
0.267031
0.278896
0.300148
0.337311
0.401114
0.508205
0.679754
0.942242
1.33192
1.90571
2.72264
3.84657
5.31773
7.17393
9.40179
11.9582
14.7926
17.7877
20.9293
24.0508
27.3208
30.2617
0.254589
0.254457
0.254345
0.254245
0.254157
0.254077
0.254004
0.253937
0.253875
0.253819
0.253767
0.25372
0.253678
0.25364
0.253608
0.253582
0.253563
0.253555
0.253562
0.253591
0.253658
0.253792
0.25406
0.254588
0.255561
0.257369
0.26078
0.267258
0.279324
0.30094
0.338743
0.40364
0.512517
0.686779
0.953515
1.35174
1.9395
2.77646
3.92837
5.43731
7.34016
9.62409
12.2422
15.144
18.2099
21.4238
24.6258
27.9715
31.0186
0.254583
0.254448
0.254334
0.254234
0.254145
0.254065
0.253992
0.253925
0.253864
0.253807
0.253756
0.25371
0.253668
0.253631
0.253599
0.253574
0.253556
0.253549
0.253557
0.253588
0.253657
0.253794
0.254068
0.254606
0.255595
0.257433
0.260901
0.267486
0.279753
0.301732
0.34018
0.406181
0.516864
0.693902
0.965364
1.37336
1.97526
2.83368
4.01567
5.56522
7.5184
9.86281
12.5481
15.5229
18.6664
21.9595
25.2522
28.6827
31.8488
0.254578
0.25444
0.254324
0.254223
0.254133
0.254053
0.253979
0.253913
0.253852
0.253796
0.253745
0.253699
0.253658
0.253621
0.25359
0.253566
0.253549
0.253543
0.253553
0.253585
0.253656
0.253796
0.254076
0.254622
0.255628
0.257496
0.261019
0.26771
0.280174
0.302512
0.341597
0.408689
0.521159
0.700964
0.977629
1.39533
2.01177
2.8923
4.10537
5.69688
7.70212
10.1091
12.8641
15.9144
19.1389
22.5151
25.9038
29.4262
32.714
0.254571
0.25443
0.254313
0.254211
0.254121
0.25404
0.253967
0.2539
0.25384
0.253784
0.253734
0.253688
0.253647
0.253612
0.253581
0.253558
0.253542
0.253537
0.253548
0.253582
0.253655
0.253799
0.254084
0.25464
0.255662
0.257562
0.261143
0.267946
0.280618
0.303333
0.343087
0.411327
0.525672
0.708463
0.991527
1.41877
2.0505
2.95424
4.19976
5.83486
7.89396
10.3653
13.1921
16.3197
19.6275
23.0896
26.578
30.1971
33.6062
0.254564
0.25442
0.254301
0.254198
0.254107
0.254027
0.253954
0.253887
0.253827
0.253772
0.253722
0.253677
0.253637
0.253602
0.253572
0.25355
0.253535
0.253531
0.253543
0.253579
0.253655
0.253802
0.254092
0.254659
0.255699
0.257631
0.261274
0.268192
0.281082
0.304189
0.344641
0.414079
0.530376
0.717001
1.00634
1.44373
2.09165
3.01985
4.29953
5.98033
8.09576
10.634
13.5356
16.7435
20.1383
23.6908
27.2845
31.0065
34.5395
0.254557
0.25441
0.254289
0.254185
0.254094
0.254013
0.25394
0.253874
0.253814
0.25376
0.25371
0.253666
0.253626
0.253592
0.253563
0.253541
0.253528
0.253525
0.253538
0.253576
0.253654
0.253805
0.254101
0.254677
0.255735
0.257698
0.261402
0.268435
0.281539
0.305034
0.346174
0.416797
0.535028
0.725722
1.02131
1.4691
2.13365
3.08701
4.40192
6.12987
8.30344
10.9107
13.8897
17.1808
20.6664
24.3144
28.0192
31.8503
35.5101
0.25455
0.254399
0.254276
0.254172
0.254081
0.254
0.253927
0.253861
0.253802
0.253748
0.253699
0.253655
0.253616
0.253582
0.253554
0.253533
0.253521
0.253519
0.253534
0.253573
0.253653
0.253808
0.254109
0.254696
0.255771
0.257767
0.261531
0.26868
0.282001
0.305888
0.347726
0.41955
0.539951
0.734734
1.03674
1.49532
2.17704
3.15636
4.5076
6.28408
8.51746
11.1955
14.2538
17.6305
21.2099
24.9577
28.7782
32.7233
36.5111
0.25454
0.254386
0.254262
0.254158
0.254066
0.253985
0.253913
0.253847
0.253788
0.253735
0.253686
0.253643
0.253605
0.253572
0.253545
0.253525
0.253513
0.253513
0.253529
0.25357
0.253653
0.253811
0.254119
0.254716
0.25581
0.257842
0.261672
0.268947
0.282504
0.306818
0.349414
0.422718
0.545794
0.744774
1.05386
1.52426
2.22466
3.23199
4.6222
6.45046
8.74738
11.5001
14.6421
18.109
21.7881
25.6429
29.587
33.6533
37.575
0.254531
0.254374
0.254249
0.254143
0.254052
0.253971
0.253899
0.253834
0.253775
0.253722
0.253674
0.253631
0.253594
0.253562
0.253536
0.253517
0.253506
0.253507
0.253525
0.253568
0.253653
0.253815
0.254129
0.254736
0.25585
0.257916
0.261812
0.269212
0.283005
0.307744
0.351098
0.426018
0.551768
0.755102
1.07161
1.55447
2.27462
3.31157
4.74316
6.62649
8.9912
11.8236
15.0553
18.6196
22.4074
26.3806
30.4603
34.659
38.7257
0.254523
0.254362
0.254235
0.254129
0.254037
0.253956
0.253884
0.25382
0.253762
0.253709
0.253662
0.25362
0.253583
0.253552
0.253527
0.253508
0.253499
0.253501
0.25352
0.253565
0.253653
0.253818
0.254138
0.254756
0.255888
0.257989
0.26195
0.269473
0.283499
0.308658
0.352763
0.429342
0.557744
0.765476
1.08953
1.5851
2.3254
3.39261
4.8665
6.80612
9.24019
12.1541
15.4776
19.1424
23.0431
27.1404
31.3609
35.6976
39.9118
0.254511
0.254347
0.254219
0.254113
0.254021
0.253941
0.253869
0.253805
0.253747
0.253696
0.253649
0.253608
0.253572
0.253541
0.253517
0.2535
0.253491
0.253495
0.253515
0.253562
0.253653
0.253822
0.254148
0.254778
0.255931
0.258069
0.262102
0.269762
0.284043
0.309712
0.354804
0.433109
0.564437
0.777012
1.1093
1.61865
2.38059
3.47996
4.99847
6.99698
9.50318
12.5013
15.9196
19.6883
23.7062
27.933
32.2987
36.7776
41.1426
0.254499
0.254332
0.254203
0.254097
0.254005
0.253925
0.253854
0.25379
0.253733
0.253682
0.253636
0.253596
0.253561
0.253531
0.253508
0.253491
0.253484
0.253489
0.253511
0.25356
0.253653
0.253826
0.254159
0.2548
0.255974
0.25815
0.262254
0.270051
0.284589
0.310807
0.356888
0.436962
0.571301
0.788903