/*--------------------------------*- C++ -*----------------------------------*\
| =========                 |                                                 |
| \\      /  F ield         | OpenFOAM: The Open Source CFD Toolbox           |
|  \\    /   O peration     | Version:  2.3.0                                 |
|   \\  /    A nd           | Web:      www.OpenFOAM.org                      |
|    \\/     M anipulation  |                                                 |
\*---------------------------------------------------------------------------*/
FoamFile
{
    version     2.0;
    format      ascii;
    class       volScalarField;
    location    "100";
    object      p;
}
// * * * * * * * * * * * * * * * * * * * * * * * * * * * * * * * * * * * * * //

dimensions      [0 2 -2 0 0 0 0];

internalField   nonuniform List<scalar> 
14137
(
-12.499
-12.5057
-12.5299
-12.5725
-12.6327
-12.712
-12.813
-12.9381
-13.0897
-13.271
-13.4857
-13.7384
-14.0346
-14.3809
-14.7858
-15.2598
-15.8161
-16.4723
-17.2511
-18.1839
-19.3129
-20.7031
-22.4424
-24.6491
-27.1926
-29.8442
-32.6119
-35.454
-38.3303
-41.2401
-44.2311
-47.4482
-51.1717
-55.8778
-62.2829
-71.3718
-84.3732
-102.671
-127.627
-160.347
-201.425
-250.757
-307.447
-369.954
-436.148
-503.988
-570.865
-636.073
-695.356
-12.8582
-12.8648
-12.8891
-12.9326
-12.9947
-13.0771
-13.1827
-13.3138
-13.4733
-13.6645
-13.8916
-14.1596
-14.4745
-14.8436
-15.2764
-15.7843
-16.3825
-17.0904
-17.9342
-18.9499
-20.1867
-21.7212
-23.6597
-26.1446
-29.0638
-32.2037
-35.6027
-39.258
-43.179
-47.4253
-52.1125
-57.4619
-63.8315
-71.772
-82.0584
-95.7077
-113.941
-138.077
-169.344
-208.654
-256.353
-312.075
-374.663
-442.385
-512.974
-584.405
-654.032
-721.445
-782.089
-13.2078
-13.2143
-13.2397
-13.2855
-13.3508
-13.4375
-13.5487
-13.6869
-13.8551
-14.057
-14.297
-14.5804
-14.9138
-15.3053
-15.7649
-16.3054
-16.9433
-17.7004
-18.6055
-19.6995
-21.0382
-22.7092
-24.8373
-27.5897
-30.8768
-34.496
-38.5146
-42.9684
-47.9152
-53.4722
-59.8184
-67.2466
-76.1851
-87.2505
-101.266
-119.269
-142.453
-172.053
-209.157
-254.473
-308.109
-369.458
-437.156
-509.331
-583.619
-658.018
-729.852
-798.968
-860.636
-13.5506
-13.5577
-13.586
-13.6362
-13.7068
-13.8003
-13.9198
-14.068
-14.2481
-14.4639
-14.7204
-15.0232
-15.3794
-15.7978
-16.2894
-16.8681
-17.5521
-18.3655
-19.3404
-20.5224
-21.9748
-23.7973
-26.1344
-29.1778
-32.8544
-36.973
-41.63
-46.8984
-52.8804
-59.7491
-67.7434
-77.2215
-88.6736
-102.771
-120.373
-142.52
-170.365
-205.044
-247.486
-298.195
-357.048
-423.203
-495.094
-570.739
-647.735
-724.177
-797.42
-867.593
-929.707
-13.8616
-13.8696
-13.9007
-13.9547
-14.0301
-14.1298
-14.257
-14.4144
-14.6055
-14.8346
-15.1066
-15.4279
-15.806
-16.2502
-16.7726
-17.3882
-18.1169
-18.9849
-20.0275
-21.295
-22.8574
-24.826
-27.3639
-30.6845
-34.7303
-39.3199
-44.5773
-50.6104
-57.5642
-65.6616
-75.1927
-86.5764
-100.358
-117.257
-138.16
-164.105
-196.194
-235.466
-282.695
-338.187
-401.605
-471.918
-547.407
-625.997
-705.215
-783.212
-857.32
-927.941
-989.869
-14.1208
-14.1282
-14.1616
-14.2183
-14.297
-14.4011
-14.5338
-14.6981
-14.8974
-15.1365
-15.4205
-15.7561
-16.1511
-16.6157
-17.1625
-17.8076
-18.5722
-19.4844
-20.582
-21.9193
-23.5724
-25.6621
-28.3668
-31.9186
-36.2755
-41.2655
-47.0363
-53.7277
-61.5225
-70.6884
-81.5657
-94.6291
-110.474
-129.87
-153.726
-183.081
-218.991
-262.399
-313.931
-373.703
-441.16
-515.06
-593.529
-674.448
-755.354
-834.515
-909.312
-980.48
-1042.53
-14.3323
-14.3396
-14.3742
-14.4325
-14.5134
-14.6205
-14.7571
-14.9262
-15.1315
-15.3777
-15.6704
-16.0165
-16.4243
-16.9043
-17.4697
-18.1375
-18.9299
-19.8765
-21.0174
-22.4101
-24.1356
-26.3228
-29.1639
-32.9054
-37.5198
-42.8441
-49.0469
-56.2965
-64.8099
-74.8979
-86.9437
-101.475
-119.137
-140.741
-167.225
-199.624
-238.955
-286.068
-341.448
-405.03
-476.075
-553.182
-634.325
-717.287
-799.55
-879.48
-954.405
-1025.29
-1086.29
-14.4993
-14.5079
-14.5428
-14.6016
-14.6836
-14.7924
-14.9313
-15.1034
-15.3127
-15.5638
-15.8627
-16.2164
-16.6334
-17.1248
-17.7041
-18.3891
-19.2027
-20.1759
-21.3507
-22.7871
-24.5703
-26.836
-29.788
-33.6858
-38.515
-44.1215
-50.6927
-58.4236
-67.5632
-78.4611
-91.5439
-107.391
-126.694
-150.31
-179.202
-214.407
-256.9
-307.441
-366.375
-433.45
-507.71
-587.569
-670.906
-755.499
-838.833
-919.32
-994.541
-1065.69
-1128.04
-750.442
-766.628
-785.456
-814.62
-846.677
-880.029
-916.954
-958.597
-1005.35
-1058.07
-1118.02
-1186.74
-1266.22
-1359.6
-1466.07
-1581.72
-1707.02
-1842.23
-1987.53
-2143.06
-2308.75
-2484.89
-2670.32
-839.198
-858.112
-880.312
-912.976
-948.56
-985.658
-1026.55
-1072.29
-1123.34
-1180.69
-1245.74
-1320.12
-1405.86
-1506.22
-1620.1
-1743
-1875.36
-2017.37
-2169.09
-2330.63
-2501.76
-2682.81
-2872.6
-3073.07
-3502.69
-919.31
-940.439
-965.341
-1000.78
-1039.27
-1079.68
-1124.3
-1174.13
-1229.55
-1291.54
-1361.55
-1441.32
-1532.97
-1639.93
-1760.85
-1890.68
-2029.83
-2178.41
-2336.44
-2503.94
-2680.57
-2866.65
-3060.34
-3264.93
-3470.87
-3699.42
-3906.99
-4173.42
-989.62
-1013.28
-1041.19
-1079.47
-1120.65
-1163.85
-1211.5
-1264.6
-1323.66
-1389.72
-1464.17
-1548.76
-1645.69
-1758.53
-1885.72
-2021.7
-2166.85
-2321.23
-2484.78
-2657.5
-2838.88
-3029.31
-3226.69
-3435.78
-3643.67
-3876.75
-4080.6
-4353.23
-4529.37
-1050.41
-1075.98
-1106.35
-1147.24
-1191.24
-1237.51
-1288.37
-1344.78
-1407.32
-1477.12
-1555.64
-1644.69
-1746.51
-1864.76
-1997.69
-2139.29
-2289.89
-2449.53
-2618.09
-2795.58
-2981.44
-3176.33
-3377.06
-3589.79
-3798.8
-4034.92
-4236.61
-4511.57
-4684.21
-5015.64
-1104.12
-1132.14
-1164.92
-1207.61
-1253.4
-1302
-1355.61
-1415.02
-1480.8
-1554.1
-1636.43
-1729.62
-1836.01
-1959.36
-2097.69
-2244.56
-2400.28
-2564.85
-2738.09
-2919.97
-3109.64
-3308.08
-3511.27
-3727.26
-3936.71
-4176.53
-4374.64
-4653.15
-4821.01
-5150.78
-5253.32
-1147.6
-1177.58
-1213.01
-1258.32
-1306.78
-1358.1
-1414.46
-1476.74
-1545.6
-1622.22
-1708.15
-1805.26
-1915.93
-2044.01
-2187.33
-2339.06
-2499.47
-2668.54
-2846.03
-3031.94
-3225.29
-3427.39
-3632.96
-3851.76
-4060.76
-4303.65
-4498.75
-4776.69
-4942.32
-5270.92
-5369.96
-5795.04
-1189.21
-1221.41
-1257.79
-1303.78
-1353.79
-1407.31
-1466.08
-1530.93
-1602.58
-1682.25
-1771.51
-1872.26
-1986.94
-2119.53
-2267.66
-2424.09
-2589.05
-2762.51
-2944.15
-3133.99
-3330.7
-3536.02
-3743.86
-3965.98
-4175.2
-4420.99
-4614.19
-4890.82
-5056.84
-5376.78
-5478.81
-5887.16
-5864.68
-14.6577
-14.6674
-14.7027
-14.7621
-14.8451
-14.9555
-15.0966
-15.2715
-15.4844
-15.7401
-16.0447
-16.4053
-16.831
-17.3329
-17.9252
-18.6262
-19.4597
-20.458
-21.6646
-23.1422
-24.9799
-27.32
-30.3772
-34.4232
-39.4561
-45.3292
-52.2478
-60.4312
-70.1586
-81.816
-95.8674
-112.939
-133.765
-159.243
-190.359
-228.15
-273.554
-327.25
-389.45
-459.738
-536.975
-619.399
-704.744
-790.678
-874.768
-955.365
-1030.31
-1099.4
-1159.87
-14.8217
-14.831
-14.8672
-14.9275
-15.0119
-15.1243
-15.268
-15.4461
-15.6631
-15.9239
-16.2347
-16.603
-17.038
-17.5514
-18.1576
-18.8758
-19.7307
-20.7557
-21.9963
-23.518
-25.4139
-27.8337
-31.0045
-35.2157
-40.4813
-46.6646
-53.9917
-62.7138
-73.1493
-85.7334
-100.985
-119.603
-142.398
-170.348
-204.507
-245.957
-295.648
-354.215
-421.765
-497.71
-580.708
-668.771
-759.444
-850.223
-938.655
-1022.93
-1101.43
-1173.14
-1239.97
-14.9807
-14.9899
-15.0265
-15.0877
-15.1734
-15.2876
-15.4337
-15.615
-15.8359
-16.1016
-16.4186
-16.7943
-17.2385
-17.763
-18.3829
-19.118
-19.9938
-21.045
-22.3189
-23.8838
-25.837
-28.335
-31.6171
-35.9918
-41.4887
-47.9803
-55.7134
-64.9705
-76.1098
-89.6178
-106.074
-126.248
-151.024
-181.462
-218.681
-263.809
-317.8
-381.234
-454.092
-535.595
-624.174
-717.597
-813.228
-908.394
-1000.67
-1088.03
-1169.64
-1243.21
-1312.2
-15.1332
-15.1434
-15.1806
-15.2425
-15.3295
-15.4454
-15.5938
-15.7781
-16.0028
-16.2733
-16.5961
-16.9791
-17.4321
-17.9674
-18.6007
-19.3521
-20.2483
-21.3251
-22.6316
-24.2388
-26.2479
-28.8226
-32.2139
-36.7478
-42.4685
-49.258
-57.3832
-67.1563
-78.9726
-93.3661
-110.968
-132.614
-159.252
-192.009
-232.056
-280.559
-338.45
-406.227
-483.729
-569.976
-663.177
-760.88
-860.304
-958.625
-1053.52
-1142.74
-1225.76
-1299.97
-1368.03
-15.2859
-15.2965
-15.3346
-15.3976
-15.486
-15.6039
-15.7548
-15.9423
-16.171
-16.4465
-16.7753
-17.1657
-17.6277
-18.174
-18.8207
-19.5887
-20.5054
-21.608
-22.9473
-24.597
-26.6624
-29.3141
-32.8151
-37.5088
-43.454
-50.542
-59.06
-69.3494
-81.8423
-97.1191
-115.86
-138.963
-167.437
-202.47
-245.273
-297.03
-358.634
-430.493
-512.29
-602.843
-700.152
-801.552
-904.16
-1005.04
-1101.94
-1192.5
-1276.3
-1351.04
-1419.07
-15.4358
-15.4457
-15.4846
-15.5486
-15.6383
-15.758
-15.9113
-16.1019
-16.3344
-16.6146
-16.9492
-17.3468
-17.8175
-18.3745
-19.0343
-19.8184
-20.7552
-21.883
-23.2544
-24.9457
-27.0664
-29.7939
-33.403
-38.2543
-44.4216
-51.806
-60.7146
-71.518
-84.6852
-100.843
-120.72
-145.279
-175.584
-212.883
-258.424
-313.396
-378.646
-454.484
-540.429
-635.096
-736.284
-841.139
-946.678
-1049.87
-1148.52
-1240.32
-1324.94
-1400.37
-1469.02
-15.5782
-15.5887
-15.6279
-15.6926
-15.7834
-15.9047
-16.0602
-16.2535
-16.4895
-16.7741
-17.1143
-17.5186
-17.9976
-18.5648
-19.2371
-20.0368
-20.9929
-22.1451
-23.5476
-25.2794
-27.4539
-30.2553
-33.9702
-38.9762
-45.3612
-53.0368
-62.3294
-73.6386
-87.4697
-104.496
-125.492
-151.483
-183.587
-223.108
-271.322
-329.418
-398.19
-477.833
-567.701
-666.201
-770.93
-878.86
-986.927
-1092.05
-1192.11
-1284.84
-1370.03
-1445.8
-1514.39
-15.7185
-15.7299
-15.7699
-15.8355
-15.9276
-16.0508
-16.2086
-16.4049
-16.6446
-16.9338
-17.2796
-17.6907
-18.1782
-18.7557
-19.4407
-20.256
-21.2316
-22.4082
-23.8419
-25.6142
-27.8426
-30.718
-34.5387
-39.6991
-46.3019
-54.2686
-63.9452
-75.76
-90.2538
-108.145
-130.255
-157.667
-191.55
-233.258
-284.085
-345.213
-417.364
-500.615
-594.139
-696.14
-804.03
-914.625
-1024.79
-1131.42
-1232.46
-1325.75
-1411.12
-1486.85
-1554.9
-15.8572
-15.8682
-15.9092
-15.9759
-16.0695
-16.1945
-16.3547
-16.554
-16.7975
-17.0913
-17.4427
-17.8608
-18.3567
-18.9444
-19.642
-20.4729
-21.4677
-22.6686
-24.1332
-25.9458
-28.2277
-31.1765
-35.1021
-40.416
-47.2353
-55.4918
-65.5508
-77.8687
-93.0218
-111.773
-134.988
-163.807
-199.445
-243.301
-296.681
-360.746
-436.139
-522.805
-619.734
-724.929
-835.619
-948.488
-1060.36
-1168.14
-1269.83
-1363.37
-1448.64
-1524.23
-1591.81
-15.9915
-16.0023
-16.0438
-16.1113
-16.206
-16.3327
-16.495
-16.697
-16.9439
-17.242
-17.5988
-18.0233
-18.5272
-19.1247
-19.8344
-20.6801
-21.6935
-22.9178
-24.4124
-26.264
-28.5978
-31.618
-35.646
-41.11
-48.1409
-56.6809
-67.114
-79.9243
-95.7218
-115.314
-139.606
-169.793
-207.131
-253.057
-308.877
-375.725
-454.149
-543.958
-643.955
-751.951
-865.018
-979.729
-1092.87
-1201.39
-1303.37
-1396.88
-1481.8
-1557.05
-1623.87
-16.1181
-16.13
-16.1718
-16.24
-16.3357
-16.4638
-16.6281
-16.8326
-17.0828
-17.3849
-17.7466
-18.1774
-18.6889
-19.2959
-20.0171
-20.8772
-21.9086
-23.1556
-24.6792
-26.5687
-28.953
-32.0429
-36.1709
-41.7815
-49.0191
-57.8366
-68.6363
-81.9288
-98.3573
-118.772
-144.115
-175.635
-214.624
-262.548
-320.71
-390.205
-471.48
-564.204
-666.991
-777.474
-892.566
-1008.77
-1122.85
-1231.83
-1333.83
-1427.1
-1511.46
-1586.15
-1651.95
-16.245
-16.2576
-16.3004
-16.3696
-16.4667
-16.5967
-16.7634
-16.9708
-17.2246
-17.5311
-17.8983
-18.3356
-18.8551
-19.4718
-20.205
-21.0798
-22.1296
-23.3997
-24.9529
-26.8809
-29.3165
-32.477
-36.706
-42.4648
-49.9114
-59.0092
-70.1788
-83.9573
-101.021
-122.261
-148.658
-181.507
-222.134
-272.031
-332.483
-404.542
-488.539
-583.996
-689.338
-802.028
-918.838
-1036.21
-1150.92
-1260.05
-1361.8
-1454.62
-1538.25
-1612.38
-1677.36
-16.369
-16.381
-16.4246
-16.4948
-16.5933
-16.725
-16.8938
-17.104
-17.3612
-17.672
-18.0443
-18.4879
-19.0151
-19.6412
-20.386
-21.2752
-22.3427
-23.6353
-25.2171
-27.1826
-29.668
-32.8972
-37.2248
-43.1281
-50.7789
-60.1508
-71.6822
-85.9354
-103.617
-125.662
-153.079
-187.212
-229.411
-281.187
-343.797
-418.24
-504.722
-602.618
-710.164
-824.67
-942.786
-1060.92
-1175.86
-1284.81
-1385.99
-1478.07
-1560.71
-1634
-1697.57
-16.486
-16.4981
-16.5421
-16.613
-16.7124
-16.8455
-17.0162
-17.2288
-17.489
-17.8035
-18.1806
-18.6301
-19.1644
-19.7994
-20.555
-21.4578
-22.5422
-23.8562
-25.4655
-27.467
-30.0004
-33.2958
-37.7187
-43.7622
-51.6105
-61.2478
-73.1295
-87.8422
-106.122
-128.944
-157.344
-192.71
-236.41
-289.967
-354.605
-431.258
-520.005
-620.074
-729.515
-845.507
-964.587
-1083.17
-1198.04
-1306.54
-1406.93
-1498.11
-1579.58
-1651.96
-1714.16
-16.5994
-16.6122
-16.6569
-16.7285
-16.8291
-16.9637
-17.1364
-17.3515
-17.6148
-17.9332
-18.315
-18.7704
-19.3119
-19.9557
-20.7223
-21.6385
-22.7398
-24.0751
-25.7117
-27.7488
-30.3298
-33.691
-38.2085
-44.391
-52.4351
-62.3355
-74.5643
-89.7316
-108.602
-132.189
-161.553
-198.121
-243.276
-298.546
-365.11
-443.836
-534.66
-636.672
-747.736
-864.917
-984.655
-1103.38
-1217.92
-1325.74
-1425.13
-1515.25
-1595.38
-1666.72
-1727.48
-16.7112
-16.724
-16.7697
-16.8423
-16.9442
-17.0806
-17.2554
-17.4731
-17.7397
-18.0622
-18.4489
-18.9102
-19.4591
-20.1117
-20.8892
-21.8189
-22.9371
-24.2936
-25.9573
-28.0299
-30.6583
-34.0848
-38.696
-45.0164
-53.2547
-63.4157
-75.9882
-91.6046
-111.056
-135.394
-165.702
-203.438
-249.996
-306.901
-375.278
-455.92
-548.618
-652.32
-764.714
-882.765
-1002.83
-1121.39
-1235.28
-1342.16
-1440.29
-1529.16
-1607.8
-1678.04
-1737.25
-16.8191
-16.8316
-16.8779
-16.9513
-17.0543
-17.1922
-17.3688
-17.589
-17.8586
-18.1847
-18.5759
-19.0428
-19.5985
-20.2596
-21.0474
-21.9899
-23.1241
-24.5009
-26.1907
-28.2973
-30.9712
-34.4605
-39.1623
-45.6158
-54.0419
-64.4547
-77.3591
-93.4088
-113.419
-138.479
-169.686
-208.531
-256.409
-314.837
-384.876
-467.243
-561.576
-666.694
-780.109
-898.717
-1018.8
-1136.91
-1249.89
-1355.63
-1452.33
-1539.82
-1616.82
-1685.8
-1743.22
-16.9185
-16.9319
-16.9784
-17.0522
-17.156
-17.295
-17.4732
-17.6954
-17.9676
-18.2971
-18.6925
-19.1645
-19.7265
-20.3954
-21.193
-22.1476
-23.297
-24.6931
-26.4076
-28.5468
-31.2643
-34.8139
-39.6027
-46.1847
-54.7911
-65.4461
-78.67
-95.1364
-115.683
-141.434
-173.5
-213.396
-262.518
-322.365
-393.931
-477.851
-573.61
-679.903
-794.077
-912.979
-1032.82
-1150.25
-1262.12
-1366.55
-1461.66
-1547.67
-1622.91
-1690.61
-1746.38
-17.0179
-17.0321
-17.0794
-17.1542
-17.2593
-17.3999
-17.5802
-17.8049
-18.0802
-18.4134
-18.8134
-19.2909
-19.8597
-20.5369
-21.3446
-22.3118
-23.4769
-24.8927
-26.6326
-28.805
-31.5667
-35.1775
-40.0542
-46.7655
-55.5535
-66.4517
-79.9958
-96.8782
-117.957
-144.39
-177.299
-218.217
-268.533
-329.723
-402.703
-488.024
-585.008
-692.237
-806.893
-925.797
-1045.09
-1161.57
-1272.06
-1374.95
-1468.25
-1552.61
-1625.95
-1692.25
-1746.16
-17.1142
-17.128
-17.1763
-17.252
-17.3583
-17.5005
-17.6827
-17.9098
-18.1881
-18.5249
-18.9292
-19.4122
-19.9875
-20.6726
-21.4901
-22.4694
-23.6496
-25.0845
-26.8489
-29.0534
-31.858
-35.5279
-40.4897
-47.3265
-56.2907
-67.4246
-81.2788
-98.5633
-120.155
-147.242
-180.953
-222.835
-274.266
-336.691
-410.942
-497.482
-595.472
-703.388
-818.26
-936.903
-1055.39
-1170.69
-1279.59
-1380.78
-1472.11
-1554.73
-1626.04
-1690.85
-1742.82
-17.2042
-17.2178
-17.2665
-17.3429
-17.4499
-17.5933
-17.7771
-18.0062
-18.287
-18.6269
-19.0351
-19.5229
-20.1041
-20.7966
-21.6232
-22.6137
-23.808
-25.2608
-27.0482
-29.2831
-32.1282
-35.8543
-40.897
-47.8533
-56.985
-68.3429
-82.4919
-100.158
-122.233
-149.937
-184.398
-227.173
-279.625
-343.162
-418.527
-506.096
-604.867
-713.228
-828.056
-946.189
-1063.64
-1177.56
-1284.7
-1384.06
-1473.3
-1554.1
-1623.3
-1686.62
-1736.63
-17.2892
-17.3034
-17.3526
-17.4294
-17.5373
-17.682
-17.8673
-18.0983
-18.3816
-18.7246
-19.1367
-19.6291
-20.2162
-20.9158
-21.7512
-22.7528
-23.9608
-25.4311
-27.241
-29.5054
-32.3902
-36.1712
-41.2928
-48.3659
-57.6607
-69.2364
-83.6715
-101.707
-124.247
-152.541
-187.713
-231.327
-284.722
-349.269
-425.611
-514.041
-613.392
-721.975
-836.525
-953.923
-1070.12
-1182.47
-1287.66
-1385.06
-1472.06
-1550.97
-1617.95
-1679.7
-1727.67
-17.3728
-17.3872
-17.4373
-17.5151
-17.6242
-17.7703
-17.9575
-18.1908
-18.4769
-18.8233
-19.2394
-19.7368
-20.3299
-21.0368
-21.8812
-22.8939
-24.1159
-25.6038
-27.4363
-29.7303
-32.6547
-36.4902
-41.6902
-48.879
-58.3354
-70.1264
-84.8435
-103.242
-126.235
-155.101
-190.959
-235.368
-289.646
-355.117
-432.318
-521.463
-621.216
-729.824
-843.88
-960.331
-1075.06
-1185.67
-1288.73
-1384.06
-1468.69
-1545.62
-1610.28
-1670.45
-1716.36
-17.4523
-17.4665
-17.5174
-17.5959
-17.706
-17.8534
-18.0422
-18.2776
-18.5661
-18.9156
-19.3354
-19.8374
-20.4361
-21.1499
-22.0027
-23.0259
-24.261
-25.7656
-27.6193
-29.9414
-32.9033
-36.7907
-42.0653
-49.3645
-58.9755
-70.9716
-85.9572
-104.7
-128.12
-157.521
-194.014
-239.15
-294.218
-360.493
-438.404
-528.085
-628.033
-736.446
-849.787
-965.084
-1078.15
-1186.86
-1287.64
-1380.79
-1462.95
-1537.85
-1600.12
-1658.66
-1702.51
-17.5242
-17.5387
-17.5898
-17.6686
-17.7792
-17.9276
-18.1176
-18.3545
-18.6451
-18.9972
-19.4203
-19.9263
-20.53
-21.2501
-22.1107
-23.1435
-24.3907
-25.9107
-27.7843
-30.1326
-33.1297
-37.0658
-42.4107
-49.8139
-59.5697
-71.7576
-86.9939
-106.058
-129.871
-159.764
-196.835
-242.62
-298.375
-365.323
-443.776
-533.796
-633.715
-741.692
-854.067
-967.971
-1079.15
-1185.76
-1284.1
-1374.94
-1454.51
-1527.29
-1587.13
-1644
-1685.71
-17.5945
-17.6096
-17.6614
-17.741
-17.8527
-18.0024
-18.194
-18.4329
-18.726
-19.0811
-19.5078
-20.0182
-20.6272
-21.3538
-22.2223
-23.2651
-24.5247
-26.0604
-27.9542
-30.329
-33.3616
-37.3466
-42.7614
-50.2687
-60.169
-72.547
-88.0303
-107.409
-131.604
-161.967
-199.585
-245.967
-302.338
-369.863
-448.73
-538.933
-638.637
-745.974
-857.172
-969.476
-1078.56
-1182.9
-1278.61
-1367.01
-1443.85
-1514.43
-1571.75
-1626.77
-1666.25
-17.6617
-17.6767
-17.7294
-17.8098
-17.9226
-18.0736
-18.2669
-18.5078
-18.8033
-19.1613
-19.5915
-20.1062
-20.7204
-21.4534
-22.3297
-23.382
-24.6536
-26.2045
-28.1177
-30.518
-33.5847
-37.6169
-43.0993
-50.7063
-60.7452
-73.3051
-89.0243
-108.703
-133.258
-164.062
-202.185
-249.11
-306.02
-374.025
-453.183
-543.424
-642.753
-749.283
-859.137
-969.689
-1076.54
-1178.52
-1271.5
-1357.39
-1431.47
-1499.73
-1554.6
-1607.61
-1645
-17.7232
-17.738
-17.7913
-17.8721
-17.9856
-18.1376
-18.3321
-18.5746
-18.8721
-19.2325
-19.6658
-20.1843
-20.8031
-21.5417
-22.425
-23.4861
-24.7686
-26.3334
-28.2644
-30.6883
-33.7868
-37.8627
-43.4077
-51.1084
-61.277
-74.0059
-89.9432
-109.898
-134.78
-165.98
-204.551
-251.939
-309.286
-377.649
-456.946
-547.056
-645.827
-751.359
-859.69
-968.327
-1072.8
-1172.28
-1262.46
-1345.73
-1417.05
-1482.89
-1535.35
-1586.34
-1621.69
-17.779
-17.7942
-17.8477
-17.9288
-18.0429
-18.1957
-18.3913
-18.6353
-18.9346
-19.2973
-19.7334
-20.2554
-20.8786
-21.6226
-22.5125
-23.5819
-24.8748
-26.4527
-28.4007
-30.8471
-33.9757
-38.0934
-43.6984
-51.4874
-61.7779
-74.665
-90.806
-111.018
-136.201
-167.759
-206.729
-254.514
-312.208
-380.818
-460.117
-549.935
-647.972
-752.319
-858.941
-965.489
-1067.43
-1164.28
-1251.55
-1332.09
-1400.63
-1463.91
-1514.03
-1562.93
-1596.19
-17.8332
-17.8487
-17.9031
-17.9851
-18.1002
-18.2544
-18.4515
-18.6973
-18.9988
-19.3642
-19.8036
-20.3294
-20.9572
-21.7068
-22.6036
-23.6815
-24.985
-26.5763
-28.5416
-31.0107
-34.1696
-38.3289
-43.9931
-51.8705
-62.2824
-75.3255
-91.6654
-112.127
-137.597
-169.492
-208.829
-256.964
-314.938
-383.711
-462.902
-552.298
-649.461
-752.468
-857.232
-961.548
-1060.81
-1154.9
-1239.19
-1316.85
-1382.59
-1443.24
-1490.98
-1537.73
-1568.9
-17.8832
-17.8985
-17.9538
-18.0365
-18.1525
-18.3078
-18.5062
-18.7537
-19.0572
-19.425
-19.8673
-20.3966
-21.0286
-21.7834
-22.6865
-23.7722
-25.0854
-26.6892
-28.6704
-31.1606
-34.3476
-38.5456
-44.2652
-52.2238
-62.748
-75.9348
-92.4574
-113.148
-138.877
-171.066
-210.718
-259.135
-317.297
-386.121
-465.072
-553.892
-650.02
-751.521
-854.263
-956.202
-1052.68
-1143.89
-1225.16
-1299.84
-1362.73
-1420.74
-1466.1
-1510.72
-1539.86
-17.9263
-17.9416
-17.9971
-18.0798
-18.1962
-18.3521
-18.5514
-18.8
-19.105
-19.4747
-19.9193
-20.4516
-21.0872
-21.8464
-22.755
-23.8476
-25.1696
-26.7845
-28.7801
-31.2892
-34.5017
-38.7348
-44.5045
-52.5381
-63.1642
-76.48
-93.1647
-114.058
-140.008
-172.443
-212.347
-260.962
-319.204
-387.956
-466.518
-554.594
-649.515
-749.333
-849.888
-949.308
-1042.86
-1131.06
-1209.25
-1280.87
-1340.92
-1396.2
-1439.25
-1481.7
-1508.77
-17.9667
-17.9824
-18.0386
-18.1219
-18.2392
-18.3961
-18.5966
-18.8467
-19.1536
-19.5255
-19.9728
-20.5082
-21.1476
-21.9115
-22.8259
-23.9256
-25.2565
-26.8827
-28.8927
-31.4207
-34.6585
-38.9268
-44.746
-52.8519
-63.5771
-77.0178
-93.8581
-114.945
-141.102
-173.757
-213.879
-262.649
-320.905
-389.502
-467.578
-554.789
-648.381
-746.383
-844.613
-941.384
-1031.93
-1117
-1192.05
-1260.55
-1317.72
-1370.21
-1410.94
-1451.16
-1476.18
-18.0039
-18.0196
-18.0768
-18.1609
-18.2791
-18.4371
-18.639
-18.8907
-19.1994
-19.5735
-20.0234
-20.562
-21.2051
-21.9735
-22.8935
-24.0001
-25.3395
-26.9765
-29.0003
-31.5464
-34.8084
-39.1099
-44.9757
-53.1507
-63.97
-77.5277
-94.5116
-115.775
-142.118
-174.961
-215.258
-264.125
-322.319
-390.672
-468.159
-554.381
-646.523
-742.588
-838.38
-932.403
-1019.87
-1101.68
-1173.55
-1238.92
-1293.18
-1342.86
-1381.2
-1419.23
-1442.27
-18.0356
-18.0512
-18.109
-18.1934
-18.3122
-18.471
-18.6739
-18.9268
-19.2369
-19.6128
-20.0648
-20.6059
-21.2523
-22.0246
-22.9494
-24.0619
-25.4088
-27.0553
-29.0912
-31.6532
-34.9366
-39.2679
-45.1754
-53.4113
-64.3138
-77.9744
-95.0824
-116.498
-142.992
-175.975
-216.387
-265.278
-323.31
-391.303
-468.073
-553.156
-643.697
-737.68
-830.88
-922.017
-1006.32
-1084.8
-1153.43
-1215.63
-1266.98
-1313.82
-1349.77
-1385.61
-1406.69
-18.0618
-18.0774
-18.1354
-18.2199
-18.339
-18.4984
-18.7019
-18.9558
-19.2672
-19.6445
-20.0984
-20.6419
-21.2912
-22.0671
-22.9962
-24.1142
-25.4679
-27.1231
-29.1699
-31.7466
-35.0497
-39.4081
-45.3535
-53.6452
-64.6231
-78.3748
-95.5902
-117.136
-143.752
-176.833
-217.305
-266.156
-323.939
-391.467
-467.41
-551.221
-640.028
-731.807
-822.3
-910.445
-991.518
-1066.56
-1131.89
-1190.9
-1239.37
-1283.34
-1316.89
-1350.48
-1369.63
-18.0857
-18.1017
-18.1607
-18.2459
-18.366
-18.5265
-18.7312
-18.9865
-19.2995
-19.6788
-20.135
-20.6812
-21.3338
-22.1135
-23.0472
-24.1709
-25.5316
-27.1957
-29.2538
-31.8452
-35.1682
-39.554
-45.5369
-53.8828
-64.9343
-78.7745
-96.0917
-117.758
-144.484
-177.641
-218.141
-266.91
-324.385
-391.373
-466.41
-548.845
-635.809
-725.283
-812.954
-897.972
-975.745
-1047.32
-1109.26
-1165.02
-1210.59
-1251.71
-1282.8
-1314.1
-1331.34
-18.1052
-18.1212
-18.1813
-18.267
-18.388
-18.5494
-18.7552
-19.0117
-19.3261
-19.7072
-20.1654
-20.7141
-21.3694
-22.1525
-23.0903
-24.2189
-25.5858
-27.2576
-29.3255
-31.93
-35.2706
-39.6802
-45.6956
-54.0893
-65.2057
-79.1219
-96.5229
-118.287
-145.092
-178.283
-218.757
-267.381
-324.466
-390.813
-464.843
-545.787
-630.785
-717.853
-802.613
-884.404
-958.818
-1026.88
-1085.39
-1137.86
-1180.55
-1218.85
-1247.5
-1276.48
-1291.82
-18.1184
-18.1343
-18.1944
-18.28
-18.4012
-18.5629
-18.7692
-19.0265
-19.3419
-19.7241
-20.1838
-20.7343
-21.3918
-22.1775
-23.1185
-24.2511
-25.6231
-27.3012
-29.3773
-31.9928
-35.3483
-39.7785
-45.8218
-54.2555
-65.4256
-79.4033
-96.8677
-118.703
-145.554
-178.731
-219.118
-267.528
-324.136
-389.734
-462.652
-541.985
-624.887
-709.444
-791.196
-869.638
-940.648
-1005.22
-1060.26
-1109.4
-1149.19
-1184.71
-1210.96
-1237.64
-1251.08
-18.1285
-18.1448
-18.2057
-18.2917
-18.4136
-18.5762
-18.7835
-19.0418
-19.3586
-19.7424
-20.2039
-20.7564
-21.4163
-22.2048
-23.1492
-24.2861
-25.6632
-27.3479
-29.4323
-32.0589
-35.429
-39.8786
-45.9482
-54.4206
-65.6418
-79.6759
-97.1946
-119.088
-145.967
-179.105
-219.367
-267.518
-323.591
-388.358
-460.084
-537.717
-618.411
-700.362
-779.031
-854.027
-921.546
-982.574
-1034.12
-1079.86
-1116.72
-1149.45
-1173.38
-1197.69
-1209.21
-18.1347
-18.1515
-18.2136
-18.3001
-18.4229
-18.5865
-18.7948
-19.0545
-19.3726
-19.758
-20.2213
-20.7757
-21.4378
-22.229
-23.1766
-24.3174
-25.6992
-27.3899
-29.482
-32.1187
-35.502
-39.9701
-46.0642
-54.5706
-65.8368
-79.9195
-97.4807
-119.415
-146.303
-179.37
-219.465
-267.311
-322.792
-386.648
-457.107
-532.963
-611.353
-690.612
-766.138
-837.62
-901.588
-959.101
-1007.16
-1049.47
-1083.34
-1113.3
-1134.94
-1156.96
-1166.59
-18.1355
-18.1528
-18.2152
-18.3018
-18.4252
-18.5893
-18.7983
-19.0588
-19.3779
-19.7644
-20.2289
-20.7847
-21.4485
-22.2417
-23.1917
-24.3355
-25.721
-27.4165
-29.5146
-32.1593
-35.5529
-40.0344
-46.1465
-54.6797
-65.9803
-80.0968
-97.6798
-119.628
-146.492
-179.448
-219.318
-266.797
-321.614
-384.466
-453.567
-527.565
-603.551
-680.019
-752.363
-820.294
-880.637
-934.607
-979.219
-1018.12
-1048.95
-1076.14
-1095.55
-1115.35
-1123.16
-18.1314
-18.1494
-18.2117
-18.2981
-18.4218
-18.5864
-18.7959
-19.057
-19.3769
-19.7643
-20.2298
-20.7868
-21.452
-22.247
-23.1992
-24.3455
-25.7342
-27.4338
-29.5372
-32.1885
-35.5907
-40.0846
-46.2132
-54.7675
-66.0939
-80.2335
-97.8231
-119.765
-146.579
-179.387
-218.982
-266.037
-320.126
-381.883
-449.534
-521.591
-595.066
-668.625
-737.733
-802.06
-858.699
-909.094
-950.275
-985.768
-1013.52
-1037.89
-1055.07
-1072.71
-1078.77
-18.1239
-18.1436
-18.2062
-18.2932
-18.418
-18.5834
-18.794
-19.0562
-19.3772
-19.7658
-20.2327
-20.7912
-21.4582
-22.2552
-23.2097
-24.3587
-25.7507
-27.4545
-29.5632
-32.2211
-35.6316
-40.1361
-46.2783
-54.8519
-66.2013
-80.3591
-97.9466
-119.868
-146.616
-179.254
-218.538
-265.126
-318.442
-379.033
-445.154
-515.207
-586.076
-656.621
-722.442
-783.136
-835.972
-882.71
-920.459
-952.595
-977.251
-998.749
-1013.66
-1029.16
-1033.53
-18.1116
-18.1334
-18.1959
-18.2834
-18.4092
-18.5754
-18.7867
-19.0498
-19.3718
-19.7613
-20.2293
-20.789
-21.4574
-22.2559
-23.2121
-24.363
-25.7574
-27.4644
-29.5768
-32.2394
-35.6556
-40.1689
-46.3226
-54.9086
-66.2705
-80.4339
-98.0022
-119.879
-146.534
-178.965
-217.887
-263.947
-316.43
-375.772
-440.269
-508.246
-576.427
-643.863
-706.349
-763.401
-812.413
-855.45
-889.768
-918.599
-940.182
-958.792
-971.393
-984.758
-987.496
-18.0939
-18.1169
-18.1777
-18.2652
-18.3912
-18.5575
-18.769
-19.0324
-19.3547
-19.7447
-20.2132
-20.7737
-21.443
-22.2424
-23.1994
-24.3514
-25.7471
-27.4558
-29.5703
-32.2352
-35.6545
-40.1718
-46.3293
-54.9194
-66.2822
-80.4358
-97.9645
-119.77
-146.298
-178.481
-216.985
-262.45
-314.035
-372.044
-434.816
-500.637
-566.065
-630.305
-689.399
-742.819
-787.985
-827.255
-858.135
-883.736
-902.325
-918.061
-928.322
-939.501
-940.635
-18.0716
-18.0969
-18.1578
-18.2467
-18.3738
-18.5408
-18.7532
-19.0175
-19.3408
-19.7319
-20.2015
-20.7631
-21.4335
-22.2342
-23.1924
-24.3457
-25.7431
-27.4539
-29.5705
-32.238
-35.6606
-40.1832
-46.3469
-54.9399
-66.3007
-80.4412
-97.9245
-119.647
-146.035
-177.955
-216.01
-260.843
-311.496
-368.124
-429.097
-492.698
-555.334
-616.304
-671.927
-721.708
-763.023
-798.478
-825.857
-848.238
-863.887
-876.769
-884.686
-893.588
-893.104
-18.0437
-18.072
-18.1337
-18.2244
-18.3525
-18.5202
-18.7336
-18.9989
-19.3231
-19.7152
-20.1859
-20.7485
-21.4199
-22.2213
-23.1803
-24.3345
-25.733
-27.4449
-29.5626
-32.2314
-35.6559
-40.1809
-46.3451
-54.9349
-66.2866
-80.4048
-97.8306
-119.453
-145.68
-177.312
-214.883
-259.037
-308.722
-363.924
-423.027
-484.352
-544.185
-601.842
-653.938
-700.095
-737.608
-769.235
-793.071
-812.238
-825.016
-835.096
-840.651
-847.198
-845.134
-18.0115
-18.0417
-18.1032
-18.1948
-18.323
-18.4909
-18.7048
-18.9707
-19.2954
-19.6881
-20.1593
-20.7222
-21.3937
-22.1952
-23.1543
-24.3086
-25.7069
-27.4185
-29.5354
-32.2033
-35.6267
-40.1508
-46.3118
-54.8914
-66.2226
-80.3047
-97.655
-119.151
-145.187
-176.495
-213.535
-256.948
-305.609
-359.326
-416.465
-475.447
-532.452
-586.755
-635.258
-677.781
-711.544
-739.374
-759.638
-775.576
-785.523
-792.89
-796.134
-800.35
-796.684
-17.9764
-18.0085
-18.0698
-18.1617
-18.2901
-18.4584
-18.673
-18.9396
-19.2651
-19.6583
-20.13
-20.6933
-21.3649
-22.1664
-23.1254
-24.2796
-25.6776
-27.3885
-29.5042
-32.1706
-35.5923
-40.1137
-46.2679
-54.8325
-66.1366
-80.1739
-97.437
-118.789
-144.611
-175.572
-212.045
-254.667
-302.26
-354.441
-409.538
-466.113
-520.263
-571.181
-616.02
-654.872
-684.911
-708.961
-725.623
-738.306
-745.442
-750.164
-751.152
-753.051
-747.766
-17.9393
-17.9726
-18.0342
-18.1266
-18.2554
-18.4247
-18.6404
-18.908
-19.2345
-19.6286
-20.1009
-20.6644
-21.3361
-22.1376
-23.0966
-24.2507
-25.6482
-27.358
-29.4722
-32.1366
-35.5556
-40.0729
-46.2186
-54.7653
-66.0379
-80.0252
-97.1936
-118.388
-143.977
-174.569
-210.446
-252.232
-298.714
-349.315
-402.311
-456.41
-507.677
-555.2
-596.316
-631.449
-657.793
-678.121
-691.19
-700.572
-704.872
-706.993
-705.779
-705.405
-698.515
-17.8998
-17.9322
-17.9935
-18.0856
-18.2147
-18.3847
-18.6012
-18.8695
-19.1967
-19.5912
-20.0636
-20.6271
-21.2985
-22.0996
-23.0579
-24.2109
-25.6068
-27.3145
-29.4258
-32.0867
-35.5007
-40.0101
-46.1418
-54.6631
-65.8942
-79.8178
-96.8745
-117.887
-143.215
-173.408
-208.651
-249.545
-294.86
-343.837
-394.681
-446.232
-494.589
-538.729
-576.103
-607.484
-630.16
-646.84
-656.365
-662.439
-663.887
-663.43
-660.055
-657.476
-649.033
-17.8563
-17.8861
-17.9464
-18.0375
-18.1666
-18.3371
-18.5542
-18.8228
-19.1503
-19.5449
-20.0171
-20.5802
-21.251
-22.0513
-23.0085
-24.1599
-25.5534
-27.2581
-29.3655
-32.0215
-35.4282
-39.9264
-46.0401
-54.5301
-65.7107
-79.5603
-96.492
-117.303
-142.341
-172.106
-206.679
-246.627
-290.719
-338.038
-386.686
-435.62
-481.035
-521.811
-555.441
-583.034
-602.056
-615.162
-621.223
-624.002
-622.576
-619.547
-614.056
-609.329
-599.401
-17.8056
-17.8348
-17.8964
-17.9882
-18.1186
-18.2903
-18.5084
-18.7779
-19.106
-19.5012
-19.9736
-20.5368
-21.2075
-22.0074
-22.9637
-24.1136
-25.5048
-27.2068
-29.3109
-31.9623
-35.3615
-39.8479
-45.9424
-54.4
-65.5283
-79.2991
-96.0999
-116.699
-141.434
-170.757
-204.646
-243.611
-286.437
-332.09
-378.519
-424.786
-467.223
-504.653
-534.549
-558.317
-573.666
-583.236
-585.902
-585.413
-581.098
-575.474
-567.87
-561.034
-549.695
-17.746
-17.7758
-17.8406
-17.9339
-18.066
-18.239
-18.458
-18.7282
-19.0568
-19.4523