/*--------------------------------*- C++ -*----------------------------------*\
| =========                 |                                                 |
| \\      /  F ield         | OpenFOAM: The Open Source CFD Toolbox           |
|  \\    /   O peration     | Version:  2.3.0                                 |
|   \\  /    A nd           | Web:      www.OpenFOAM.org                      |
|    \\/     M anipulation  |                                                 |
\*---------------------------------------------------------------------------*/
FoamFile
{
    version     2.0;
    format      ascii;
    class       surfaceScalarField;
    location    "100";
    object      phi;
}
// * * * * * * * * * * * * * * * * * * * * * * * * * * * * * * * * * * * * * //

dimensions      [0 3 -1 0 0 0 0];

internalField   nonuniform List<scalar> 
28014
(
67.5052
48.4737
65.0979
48.4723
62.691
48.4714
60.2846
48.4706
57.8785
48.4703
55.4728
48.4705
53.0675
48.4712
50.6626
48.4725
48.258
48.4745
45.8538
48.4774
43.4499
48.4813
41.0464
48.4864
38.6433
48.4929
36.2404
48.5011
33.8378
48.5115
31.4356
48.5246
29.0336
48.541
26.6318
48.5618
24.2301
48.5883
21.8286
48.6226
19.427
48.6676
17.0251
48.7284
14.6226
48.8133
12.4482
46.681
10.6663
39.3054
9.1672
32.7941
7.90525
27.3914
6.84207
22.9101
5.94539
19.1939
5.18813
16.1121
4.54765
13.5546
4.00508
11.4292
3.54476
9.65852
3.15377
8.17843
2.82147
6.93635
2.53905
5.88987
2.29917
5.00501
2.09567
4.25456
1.92334
3.6166
1.7777
3.07328
1.65486
2.60992
1.55149
2.2144
1.46464
1.87665
1.39178
1.58828
1.33071
1.34225
1.27954
1.13261
1.23668
0.954265
1.20075
0.802842
0.674467
1.17068
66.6123
50.8517
64.2348
50.8498
61.8578
50.8484
59.481
50.8473
57.1048
50.8466
54.7288
50.8465
52.3533
50.8467
49.9781
50.8476
47.6034
50.8493
45.2289
50.8518
42.8549
50.8553
40.4811
50.8601
38.1078
50.8662
35.7347
50.8742
33.362
50.8843
30.9895
50.897
28.6174
50.9132
26.2454
50.9338
23.8737
50.9601
21.5021
50.9942
19.1305
51.0392
16.7587
51.1001
14.3865
51.1855
12.2526
48.8149
10.5091
41.0489
9.04053
34.2626
7.80279
28.6291
6.75876
23.9541
5.87717
20.0755
5.13181
16.8574
4.50067
14.1857
3.96542
11.9644
3.51084
10.1131
3.12434
8.56492
2.79554
7.26515
2.51585
6.16956
2.27811
5.24275
2.07629
4.45638
1.90527
3.78763
1.76064
3.21791
1.63858
2.73198
1.53576
2.31721
1.44929
1.96311
1.37665
1.66092
1.31566
1.40323
1.26448
1.1838
1.22152
0.997218
1.18546
0.838902
0.704701
1.15523
65.495
53.1912
63.1557
53.1891
60.8168
53.1873
58.4785
53.1857
56.1404
53.1847
53.8028
53.1841
51.4656
53.1839
49.1287
53.1845
46.7922
53.1858
44.4561
53.188
42.1203
53.1911
39.7849
53.1955
37.4498
53.2013
35.115
53.2089
32.7806
53.2187
30.4464
53.2312
28.1126
53.2471
25.779
53.2673
23.4457
53.2934
21.1125
53.3274
18.7793
53.3723
16.4461
53.4333
14.1126
53.5191
12.0269
50.9007
10.3283
42.7475
8.8958
35.6951
7.68692
29.838
6.66597
24.9751
5.80284
20.9387
5.0722
17.5881
4.45282
14.8051
3.92697
12.4903
3.47991
10.5602
3.09942
8.94541
2.77544
7.58914
2.4996
6.4454
2.26495
5.4774
2.06562
4.65571
1.8966
3.95665
1.75357
3.36094
1.63278
2.85277
1.53096
2.41903
1.44526
2.04881
1.3732
1.73297
1.31265
1.46379
1.26177
1.23468
1.21901
1.03998
1.18305
0.874855
0.734892
1.15286
64.6646
55.5031
62.353
55.5006
60.042
55.4983
57.7313
55.4964
55.421
55.4949
53.1112
55.4939
50.8016
55.4935
48.4925
55.4936
46.1837
55.4946
43.8753
55.4964
41.5673
55.4992
39.2596
55.5032
36.9523
55.5087
34.6453
55.5159
32.3386
55.5254
30.0323
55.5375
27.7263
55.5531
25.4205
55.5731
23.115
55.5989
20.8098
55.6326
18.5047
55.6774
16.1996
55.7384
13.8943
55.8244
11.8465
52.9484
10.1841
44.4098
8.78042
37.0989
7.59446
31.024
6.59167
25.9779
5.74292
21.7874
5.02363
18.3073
4.41321
15.4155
3.89439
13.0091
3.45284
11.0017
3.07667
9.32158
2.75604
7.90976
2.48282
6.71862
2.25018
5.71003
2.05238
4.85351
1.88451
4.12452
1.74231
3.50314
1.62209
2.97299
1.52062
2.5205
1.43508
2.13436
1.36301
1.80504
1.30234
1.52446
1.25128
1.28574
1.20832
1.08294
1.17216
0.91101
0.765279
1.14178
55.7534
57.4944
53.7627
57.4913
51.7722
57.4887
49.7821
57.4865
47.7923
57.4847
45.803
57.4832
43.814
57.4825
41.8252
57.4824
39.8369
57.4829
37.8488
57.4844
35.861
57.487
33.8736
57.4906
31.8864
57.4958
29.8996
57.5028
27.9131
57.5119
25.9269
57.5237
23.9409
57.539
21.9552
57.5588
19.9698
57.5843
17.9846
57.6178
15.9996
57.6624
14.0148
57.7233
12.0299
57.8093
10.2794
54.699
8.8642
45.825
7.66823
38.2948
6.65701
32.0352
5.80139
26.8335
5.07677
22.512
4.4624
18.9217
3.94079
15.9371
3.49731
13.4526
3.11972
11.3793
2.79792
9.64338
2.52351
8.18417
2.28953
6.9526
2.09017
5.90939
1.92055
5.02313
1.77648
4.2686
1.65434
3.62529
1.55097
3.07635
1.46365
2.60783
1.38995
2.20805
1.3278
1.86719
1.27539
1.57687
1.23119
1.32995
1.19389
1.12024
1.16241
0.942491
0.791813
1.13588
45.8289
59.1274
44.196
59.1242
42.5636
59.1212
40.9314
59.1187
39.2996
59.1165
37.6679
59.1149
36.0365
59.1139
34.4054
59.1134
32.7746
59.1138
31.1442
59.1149
29.514
59.1171
27.884
59.1206
26.2543
59.1255
24.6248
59.1322
22.9956
59.1411
21.3667
59.1527
19.738
59.1677
18.1095
59.1872
16.4813
59.2125
14.8534
59.2458
13.2256
59.2902
11.598
59.3509
9.97052
59.4368
8.54487
56.1246
7.39734
46.9725
6.42726
39.2649
5.6069
32.8555
4.91278
27.5276
4.32502
23.0998
3.8268
19.4199
3.40396
16.36
3.04456
13.812
2.73869
11.6852
2.47806
9.90401
2.25583
8.40641
2.06631
7.14212
1.90479
6.07091
1.76727
5.16065
1.65037
4.3855
1.55116
3.7245
1.46709
3.16043
1.3959
2.67901
1.33568
2.26828
1.28475
1.91812
1.24169
1.61993
1.20528
1.36636
1.17451
1.15101
1.1485
0.968507
0.81376
1.12655
38.19
60.4848
36.8329
60.4813
35.476
60.4781
34.1193
60.4753
32.7629
60.473
31.4067
60.4712
30.0509
60.4697
28.6951
60.4691
27.3397
60.4692
25.9845
60.4701
24.6294
60.4722
23.2747
60.4753
21.9201
60.4801
20.5658
60.4866
19.2117
60.4952
17.8578
60.5066
16.5042
60.5214
15.1507
60.5406
13.7975
60.5657
12.4445
60.5988
11.0917
60.643
9.73913
60.7035
8.3867
60.7892
7.20839
57.3029
6.26358
47.9173
5.46508
40.0634
4.79009
33.5305
4.21932
28.0984
3.73638
23.5827
3.32741
19.8289
2.98066
16.7067
2.68627
14.1064
2.43594
11.9355
2.2228
10.1172
2.04114
8.58807
1.88624
7.29702
1.75419
6.20296
1.6417
5.27314
1.54598
4.48121
1.46465
3.80583
1.39562
3.22946
1.33709
2.73754
1.28749
2.31789
1.24542
1.96019
1.20972
1.65563
1.17942
1.39666
1.15366
1.17676
1.13176
0.990415
0.832423
1.11309
30.8471
61.5766
29.7554
61.573
28.664
61.5695
27.5727
61.5666
26.4817
61.564
25.3909
61.5619
24.3003
61.5604
23.2098
61.5596
22.1195
61.5595
21.0294
61.5602
19.9396
61.562
18.8498
61.5651
17.7602
61.5696
16.6709
61.5759
15.5817
61.5844
14.4926
61.5956
13.4038
61.6102
12.3152
61.6293
11.2267
61.6542
10.1384
61.6871
9.05033
61.7311
7.96241
61.7914
6.87466
61.8769
5.93446
58.2431
5.18474
48.667
4.55114
40.697
4.01568
34.066
3.56311
28.551
3.18044
23.9654
2.85665
20.1527
2.58241
16.981
2.34982
14.339
2.15225
12.1331
1.98417
10.2852
1.84101
8.73123
1.71899
7.41904
1.61496
6.30699
1.52631
5.36179
1.45082
4.55671
1.38657
3.87008
1.33191
3.28411
1.28542
2.78403
1.24586
2.35744
1.2122
1.99385
1.18353
1.6843
1.15911
1.42108
1.13829
1.19758
1.12066
1.00805
1.10567
0.847413
1.1201
0.81976
1.0692
0.827888
1.01795
0.836507
0.966328
0.845904
0.914297
0.855987
0.861843
0.866779
0.808948
0.878409
0.755598
0.891003
0.701779
0.904694
0.647468
0.91966
0.592622
0.936126
0.537183
0.954362
0.481081
0.974708
0.423548
1.00652
0.371569
0.947641
0.324623
0.891732
0.282235
0.838828
0.243988
0.788934
0.209512
0.742032
0.178483
0.698087
0.150624
0.657032
0.125706
0.618793
0.583278
1.10392
0.871072
1.05232
0.87949
1.00041
0.888414
0.948174
0.89814
0.89559
0.90857
0.842639
0.91973
0.789285
0.931764
0.73549
0.944798
0.681223
0.95896
0.626465
0.974419
0.571189
0.991401
0.51536
1.01019
0.458918
1.03115
0.401091
1.06435
0.348985
0.999748
0.302032
0.938684
0.259731
0.88113
0.22163
0.827034
0.187344
0.776319
0.156536
0.728895
0.128916
0.684653
0.104237
0.643471
0.0823128
0.605203
0.569786
0.506923
1.10093
0.923002
1.04872
0.931702
0.996195
0.940939
0.943334
0.951001
0.890142
0.961762
0.836622
0.973251
0.782764
0.985621
0.728555
0.999008
0.673962
1.01355
0.618951
1.02943
0.56349
1.04686
0.507544
1.06614
0.451068
1.08763
0.393292
1.12212
0.341403
1.05164
0.294794
0.985293
0.252926
0.922998
0.215329
0.864631
0.181598
0.81005
0.151381
0.759111
0.12438
0.711654
0.100344
0.667507
0.0790442
0.626503
0.0603453
0.588485
0.0439884
0.553388
0.029928
0.520983
0.018024
0.491234
0.463921
1.08934
0.975439
1.03668
0.984361
0.983767
0.993851
0.93057
1.0042
0.877066
1.01527
0.823239
1.02708
0.769081
1.03978
0.714582
1.05351
0.659737
1.0684
0.604529
1.08464
0.548932
1.10246
0.492917
1.12215
0.436445
1.1441
0.378752
1.17982
0.327108
1.10328
0.28086
1.03154
0.239435
0.964423
0.202341
0.901725
0.16915
0.843242
0.139492
0.788769
0.113053
0.738093
0.0895544
0.691006
0.0687821
0.647275
0.0505684
0.606699
0.0348109
0.569146
0.0213518
0.534442
0.0101384
0.502447
0.00138433
0.472675
0.447136
1.0828
1.02851
1.0295
1.03767
0.975943
1.0474
0.922153
1.05799
0.86814
1.06928
0.813887
1.08133
0.759371
1.0943
0.704579
1.1083
0.649495
1.12348
0.594109
1.14002
0.538399
1.15817
0.482345
1.17821
0.425918
1.20052
0.368356
1.23738
0.316986
1.15465
0.271123
1.0774
0.230163
1.00538
0.193587
0.938301
0.160949
0.87588
0.131874
0.817843
0.106044
0.763923
0.0831967
0.713853
0.0630906
0.667381
0.0455397
0.62425
0.0304015
0.584284
0.0175968
0.547247
0.00705165
0.512992
-0.0011132
0.48084
-0.0072256
0.453249
0.42374
1.07316
1.0819
1.01961
1.09122
0.965841
1.10117
0.911834
1.11199
0.857583
1.12353
0.803098
1.13582
0.748384
1.14901
0.693439
1.16324
0.63826
1.17866
0.582842
1.19544
0.527173
1.21384
0.471238
1.23414
0.415018
1.25674
0.357761
1.29464
0.306847
1.20556
0.261539
1.12271
0.221207
1.04571
0.185309
0.9742
0.15338
0.907808
0.125026
0.846197
0.0999116
0.789038
0.0777516
0.736013
0.0583283
0.686804
0.041478
0.6411
0.0270619
0.5987
0.0150038
0.559305
0.00512181
0.522874
-0.0023104
0.488272
-0.00784553
0.458784
-0.0108389
0.426734
0.407775
1.05905
1.13594
1.00483
1.14544
0.95049
1.15551
0.896037
1.16645
0.841454
1.17811
0.786711
1.19056
0.731797
1.20392
0.676708
1.21833
0.621444
1.23392
0.566
1.25089
0.510373
1.26946
0.454557
1.28996
0.398536
1.31276
0.341562
1.35161
0.291046
1.25608
0.246217
1.16754
0.206414
1.08552
0.17107
1.00954
0.139712
0.939167
0.111936
0.873973
0.087412
0.813562
0.0658589
0.757566
0.0470248
0.705638
0.0307237
0.657401
0.0168004
0.612623
0.00520972
0.570896
-0.00424202
0.532326
-0.0113718
0.495401
-0.0164813
0.463893
-0.0191682
0.42942
-0.0193463
0.407953
0.371423
1.05195
1.18967
0.997846
1.19954
0.94341
1.20995
0.888745
1.22111
0.833931
1.23293
0.778987
1.2455
0.723919
1.25899
0.668734
1.27352
0.613432
1.28923
0.558018
1.3063
0.502494
1.32499
0.44686
1.34559
0.391114
1.36851
0.334522
1.4082
0.28452
1.30608
0.2403
1.21176
0.201168
1.12465
0.16654
1.04417
0.135919
0.969788
0.10889
0.901001
0.0850948
0.837357
0.0642578
0.778403
0.0461296
0.723767
0.0305654
0.672965
0.0173321
0.625856
0.00647246
0.581755
-0.00236125
0.541159
-0.00879116
0.501831
-0.0132402
0.468342
-0.0152275
0.431408
-0.0149838
0.407709
-0.0125087
0.368948
0.364059
33.2889
62.7601
32.1056
62.7563
30.9225
62.7527
29.7396
62.7495
28.5569
62.7467
27.3743
62.7445
26.1919
62.7428
25.0098
62.7417
23.8279
62.7414
22.646
62.7421
21.4644
62.7436
20.2831
62.7465
19.1018
62.7509
17.9208
62.757
16.7399
62.7652
15.5593
62.7762
14.3788
62.7907
13.1986
62.8095
12.0186
62.8342
10.8388
62.8668
9.6593
62.9106
8.48002
62.9707
7.30096
63.056
6.19351
59.3506
5.27061
49.5899
4.50127
41.4664
3.85959
34.7077
3.32389
29.0867
2.87608
24.4132
2.50105
20.5277
2.18622
17.2958
1.92123
14.6039
1.6976
12.3567
1.50846
10.4744
1.34827
8.89142
1.21253
7.55478
1.09755
6.42196
1.00025
5.45908
0.918016
4.63895
0.848575
3.93952
0.789966
3.34272
0.740486
2.83351
0.698674
2.39925
0.663296
2.02922
0.633319
1.71427
0.607904
1.4465
0.586287
1.21919
0.567965
1.02637
0.863561
0.551816
33.2846
63.9448
32.1003
63.9406
30.916
63.9369
29.732
63.9335
28.5481
63.9305
27.3646
63.9281
26.1812
63.9262
24.9979
63.925
23.8148
63.9244
22.632
63.9249
21.4493
63.9264
20.2668
63.929
19.0845
63.9332
17.9024
63.9391
16.7205
63.9472
15.5387
63.958
14.3572
63.9722
13.1759
63.9908
11.9949
64.0153
10.8141
64.0477
9.63347
64.0912
8.45313
64.151
7.27305
64.2361
6.16463
60.459
5.24096
50.5136
4.47099
42.2363
3.82879
35.3499
3.29268
29.6228
2.84454
24.8613
2.46923
20.903
2.15416
17.6109
1.88893
14.8692
1.66508
12.5806
1.47571
10.6637
1.31531
9.05182
1.17936
7.69073
1.06418
6.53715
0.966665
5.55659
0.884182
4.72143
0.814451
4.00925
0.755487
3.40169
0.705585
2.88341
0.663282
2.44156
0.62736
2.06514
0.596797
1.74484
0.570794
1.4725
0.548577
1.24141
0.529801
1.04514
0.879692
0.51367
32.97
65.1197
31.7953
65.1153
30.6208
65.1114
29.4466
65.1078
28.2725
65.1046
27.0985
65.1021
25.9248
65.0999
24.7513
65.0985
23.5778
65.0979
22.4047
65.098
21.2317
65.0993
20.059
65.1017
18.8863
65.1058
17.7139
65.1115
16.5417
65.1194
15.3697
65.13
14.1978
65.144
13.0262
65.1624
11.8548
65.1867
10.6837
65.2188
9.51275
65.2621
8.34207
65.3217
7.17162
65.4065
6.07227
61.5583
5.15611
51.4298
4.39239
43
3.75537
35.9869
3.22355
30.1546
2.77893
25.306
2.40649
21.2755
2.09374
17.9236
1.83038
15.1325
1.608
12.8029
1.41979
10.8519
1.26026
9.21136
1.12496
7.82603
1.01023
6.65188
0.912998
5.65382
0.83064
4.80379
0.760878
4.07902
0.701735
3.46083
0.651511
2.93364
0.60877
2.4843
0.572334
2.10158
0.541214
1.77596
0.514664
1.49905
0.491999
1.26407
0.472761
1.06438
0.896078
0.456375
31.9227
66.2577
30.7848
66.2531
29.6473
66.2489
28.51
66.2452
27.3728
66.2418
26.2359
66.239
25.099
66.2368
23.9623
66.2351
22.8259
66.2343
21.6896
66.2343
20.5535
66.2354
19.4176
66.2377
18.2818
66.2415
17.1463
66.247
16.0109
66.2548
14.8757
66.2652
13.7407
66.279
12.6059
66.2972
11.4713
66.3213
10.337
66.3532
9.20282
66.3962
8.06893
66.4556
6.93527
66.5402
5.87045
62.6232
4.98309
52.3171
4.24336
43.7398
3.62634
36.6039
3.11117
30.6698
2.68043
25.7367
2.31954
21.6364
2.01642
18.2267
1.76109
15.3879
1.5454
13.0186
1.36278
11.0346
1.20795
9.36619
1.07659
7.95738
0.965175
6.76329
0.870708
5.74829
0.790619
4.88387
0.722681
4.14696
0.664963
3.51855
0.615822
2.98278
0.573874
2.52625
0.537999
2.13746
0.507271
1.80669
0.480986
1.52534
0.45852
1.28654
0.439356
1.08355
0.912443
0.422992
31.9182
67.3968
30.7792
67.3921
29.6405
67.3876
28.502
67.3837
27.3636
67.3802
26.2253
67.3772
25.0875
67.3747
23.9496
67.3729
22.812
67.3719
21.6746
67.3717
20.5373
67.3727
19.4002
67.3748
18.2633
67.3784
17.1266
67.3837
15.9901
67.3913
14.8537
67.4015
13.7176
67.4152
12.5816
67.4332
11.4459
67.457
10.3104
67.4887
9.1751
67.5315
8.04007
67.5906
6.90526
67.675
5.8394
63.689
4.95116
53.2054
4.21071
44.4802
3.59308
37.2215
3.07743
31.1854
2.64627
26.1679
2.28502
21.9976
1.98156
18.5302
1.72589
15.6435
1.50987
13.2346
1.32692
11.2175
1.17173
9.52138
1.04001
8.0891
0.928201
6.8751
0.833295
5.8432
0.752708
4.96446
0.6842
4.21546
0.62583
3.57692
0.575964
3.03264
0.533245
2.56897
0.496591
2.17411
0.465117
1.83816
0.438108
1.55234
0.41498
1.30967
0.395207
1.10332
0.92933
0.378319
31.914
68.5365
30.7744
68.5317
29.635
68.527
28.4959
68.5229
27.357
68.5191
26.2182
68.516
25.0796
68.5133
23.9411
68.5114
22.8029
68.5102
21.6648
68.5098
20.527
68.5105
19.3893
68.5125
18.2518
68.5159
17.1144
68.5211
15.9773
68.5285
14.8403
68.5385
13.7036
68.5519
12.567
68.5697
11.4307
68.5933
10.2946
68.6248
9.15878
68.6674
8.02319
68.7262
6.88787
68.8103
5.82154
64.7554
4.93296
54.0939
4.19226
45.2209
3.57449
37.8393
3.05874
31.7012
2.62757
26.599
2.26635
22.3588
1.96294
18.8336
1.70735
15.8991
1.49141
13.4506
1.30852
11.4004
1.15338
9.67652
1.02167
8.22081
0.90982
6.98695
0.814809
5.93821
0.734028
5.04524
0.665222
4.28427
0.606458
3.63568
0.556122
3.08298
0.512884
2.6122
0.47569
2.2113
0.443691
1.87016
0.416195
1.57984
0.392639
1.33322
0.372519
1.12344
0.946461
0.355389
30.947
69.6422
29.8416
69.6371
28.7364
69.6323
27.6312
69.628
26.5262
69.624
25.4216
69.6206
24.3171
69.6178
23.2128
69.6157
22.1086
69.6143
21.0045
69.6139
19.9007
69.6144
18.7969
69.6162
17.6934
69.6194
16.5902
69.6244
15.487
69.6316
14.3841
69.6414
13.2813
69.6547
12.1788
69.6723
11.0764
69.6957
9.97427
69.7269
8.87238
69.7692
7.77073
69.8278
6.66935
69.9117
5.6349
65.7898
4.7729
54.9559
4.05435
45.9395
3.45503
38.4386
2.95467
32.2015
2.53629
27.0174
2.18573
22.7094
1.89123
19.1281
1.64302
16.1473
1.43324
13.6604
1.25549
11.5781
1.10464
9.82737
0.976506
8.34895
0.867615
7.09584
0.775012
6.03081
0.696149
5.12411
0.628819
4.3516
0.571144
3.69336
0.521573
3.13255
0.478859
2.65492
0.442019
2.24814
0.410269
1.90191
0.382958
1.60715
0.359553
1.35663
0.339566
1.14343
0.963457
0.322569
30.4636
70.7314
29.3746
70.7261
28.2858
70.7211
27.1973
70.7165
26.1089
70.7125
25.0206
70.7089
23.9325
70.7059
22.8446
70.7036
21.7568
70.7021
20.6693
70.7014
19.5819
70.7017
18.4947
70.7035
17.4077
70.7064
16.3208
70.7113
15.234
70.7183
14.1475
70.728
13.0612
70.741
11.975
70.7584
10.8891
70.7816
9.8034
70.8126
8.71793
70.8547
7.63272
70.913
6.54776
70.9967
5.52875
66.8088
4.67963
55.8051
3.97181
46.6473
3.38143
39.029
2.88854
32.6944
2.4764
27.4296
2.13102
23.0548
1.84078
19.4183
1.59615
16.392
1.38932
13.8672
1.21399
11.7535
1.06511
9.97625
0.938566
8.4755
0.830914
7.2035
0.739232
6.12249
0.660988
5.20235
0.594008
4.41858
0.536458
3.75091
0.486845
3.18216
0.44398
2.69778
0.40693
2.28519
0.374958
1.93388
0.347444
1.63467
0.323864
1.38021
0.303717
1.16357
0.980578
0.286596
30.4597
71.8209
29.3705
71.8153
28.2813
71.8103
27.1923
71.8055
26.1036
71.8011
25.015
71.7975
23.9266
71.7943
22.8385
71.7918
21.7504
71.7901
20.6626
71.7893
19.5748
71.7895
18.4873
71.791
17.3999
71.7938
16.3128
71.7985
15.2258
71.8053
14.139
71.8148
13.0523
71.8276
11.9659
71.8448
10.8797
71.8678
9.79376
71.8986
8.70804
71.9404
7.6226
71.9985
6.53745
72.0818
5.5183
67.828
4.66908
56.6543
3.96127
47.3551
3.37098
39.6193
2.8782
33.1872
2.46623
27.8415
2.12107
23.3999
1.83109
19.7083
1.5867
16.6364
1.3801
14.0738
1.20501
11.9286
1.05632
10.1249
0.929905
8.60191
0.822308
7.31109
0.730576
6.21422
0.652168
5.28076
0.584908
4.48584
0.526984
3.80883
0.476939
3.23221
0.433633
2.74109
0.396175
2.32265
0.363856
1.9662
0.336055
1.66247
0.312257
1.40401
0.29195
1.18388
0.997768
0.27476
30.3004
72.9056
29.2159
72.8999
28.1316
72.8945
27.0475
72.8896
25.9636
72.8851
24.8799
72.8812
23.7962
72.8779
22.7129
72.8752
21.6297
72.8733
20.5467
72.8723
19.4638
72.8724
18.381
72.8737
17.2985
72.8763
16.2161
72.8808
15.1339
72.8875
14.0519
72.8968
12.9701
72.9094
11.8885
72.9264
10.8071
72.9492
9.72599
72.9798
8.6451
73.0213
7.5645
73.0791
6.48418
73.1621
5.46959
68.8426
4.62421
57.4997
3.91961
48.0597
3.33199
40.2069
2.84149
33.6777
2.43141
28.2516
2.08784
23.7435
1.79919
19.997
1.5559
16.8796
1.35018
14.2795
1.17577
12.103
1.02759
10.2731
0.901499
8.728
0.794048
7.41854
0.702279
6.30599
0.62366
5.35938
0.556035
4.55346
0.497643
3.86722
0.447079
3.28277
0.403254
2.78491
0.365312
2.36059
0.332574
1.99894
0.30443
1.69061
0.28037
1.42807
0.259866
1.20439
1.0151
0.242535
28.9255
73.9413
27.8898
73.9355
26.8544
73.9299
25.8192
73.9248
24.7841
73.9202
23.7493
73.916
22.7145
73.9126
21.68
73.9097
20.6455
73.9078
19.6113
73.9065
18.5772
73.9065
17.5433
73.9076
16.5096
73.9101
15.4759
73.9144
14.4425
73.921
13.4092
73.93
12.3761
73.9425
11.3432
73.9593
10.3105
73.9819
9.27803
74.0122
8.2458
74.0535
7.21383
74.1111
6.18215
74.1938
5.21322
69.8115
4.40588
58.307
3.73294
48.7327
3.1717
40.7681
2.70314
34.1463
2.31132
28.6434
1.98293
24.0719
1.70689
20.273
1.47407
17.1125
1.27707
14.4765
1.1099
12.2702
0.967745
10.4153
0.846644
8.8491
0.743285
7.5219
0.65483
6.39445
0.578847
5.43536
0.51329
4.61902
0.456503
3.92401
0.407194
3.33208
0.364378
2.82773
0.327276
2.39769
0.295262
2.03095
0.267752
1.71812
0.244247
1.45157
0.224216
1.22442
1.03203
0.207282
28.9216
74.9772
27.886
74.9712
26.8504
74.9655
25.8151
74.9601
24.78
74.9553
23.745
74.9511
22.7103
74.9473
21.6755
74.9445
20.6412
74.9422
19.6068
74.9409
18.5726
74.9407
17.5386
74.9416
16.5048
74.9439
15.4711
74.9482
14.4376
74.9544
13.4043
74.9634
12.3712
74.9757
11.3382
74.9923
10.3055
75.0146
9.27302
75.0447
8.24077
75.0858
7.20883
75.143
6.17719
75.2255
5.20835
70.7803
4.40114
59.1142
3.72838
49.4054
3.16736
41.3292
2.69907
34.6145
2.30757
29.0349
1.9795
24.4
1.70382
20.5487
1.47138
17.3449
1.27475
14.6732
1.1079
12.437
0.966013
10.5572
0.845098
8.97001
0.741818
7.62518
0.653316
6.48295
0.577167
5.51151
0.511351
4.68484
0.454257
3.9811
0.404643
3.38169
0.361569
2.8708
0.324282
2.43498
0.292161
2.06307
0.264618
1.74566
0.241149
1.47504
0.221202
1.24436
1.0488
0.204439
28.917
76.0138
27.8807
76.0076
26.8446
76.0016
25.8085
75.9962
24.7727
75.9912
23.7371
75.9868
22.7015
75.9829
21.6663
75.9796
20.6311
75.9774
19.5961
75.9759
18.5614
75.9754
17.5266
75.9763
16.4922
75.9784
15.4579
75.9825
14.4237
75.9886
13.3897
75.9974
12.3559
76.0095
11.3223
76.0259
10.2889
76.048
9.25575
76.0779
8.22287
76.1187
7.19028
76.1756
6.15802
76.2577
5.18862
71.7497
4.38095
59.9219
3.70783
50.0785
3.14655
41.8904
2.67806
35.083
2.2864
29.4266
1.95826
24.7281
1.68249
20.8245
1.44995
17.5774
1.2532
14.8699
1.0862
12.604
0.944084
10.6993
0.82285
9.09125
0.719145
7.72889
0.630109
6.57199
0.553329
5.58829
0.486821
4.75135
0.429032
4.03889
0.37877
3.43196
0.335136
2.91444
0.297395
2.47272
0.264928
2.09554
0.237127
1.77347
0.213481
1.49869
0.193395
1.26445
1.06568
0.176513
28.0741
77.0205
27.0677
77.014
26.0614
77.0079
25.0553
77.0022
24.0494
76.997
23.0437
76.9925
22.0381
76.9884
21.0327
76.985
20.0275
76.9826
19.0224
76.981
18.0173
76.9805
17.0126
76.981
16.0079
76.9831
15.0035
76.9869
13.9991
76.993
12.995
77.0015
11.991
77.0134
10.9872
77.0297
9.98368
77.0516
8.98034
77.0812
7.97726
77.1217
6.97447
77.1784
5.97201
77.2602
5.03061
72.6911
4.24627
60.7062
3.59262
50.7322
3.04755
42.4355
2.59258
35.538
2.2122
29.807
1.89345
25.0469
1.6255
21.0924
1.39949
17.8034
1.20818
15.0612
1.04569
12.7665
0.907296
10.8377
0.789103
9.20944
0.687839
7.83015
0.600716
6.65911
0.52541
5.6636
0.460034
4.81672
0.403133
4.09579
0.353603
3.48149
0.310614
2.95743
0.273463
2.50987
0.241556
2.12745
0.214282
1.80074
0.191136
1.52183
0.171508
1.28408
1.08214
0.155049
27.3054
77.9997
26.3264
77.993
25.3475
77.9868
24.3688
77.9809
23.3902
77.9757
22.4119
77.9708
21.4337
77.9666
20.4555
77.9633
19.4777
77.9605
18.4999
77.9588
17.5223
77.958
16.5449
77.9585
15.5675
77.9605
14.5902
77.9642
13.6133
77.9699
12.6364
77.9783
11.6598
77.9901
10.6833
78.0061
9.70701
78.0278
8.73095
78.0572
7.75516
78.0975
6.77966
78.1539
5.80449
78.2354
4.88871
73.6069
4.12575
61.4692
3.48992
51.368
2.95973
42.9657
2.51718
35.9806
2.14716
30.177
1.83704
25.357
1.57634
21.3531
1.35636
18.0234
1.17006
15.2475
1.01175
12.9248
0.876819
10.9726
0.761444
9.32482
0.662437
7.92916
0.57709
6.74446
0.503164
5.73752
0.438866
4.88102
0.382847
4.15181
0.334081
3.53025
0.291796
2.99971
0.255314
2.54636
0.224049
2.15871
0.197384
1.82741
0.1748
1.54442
0.155679
1.3032
1.09814
0.139676
27.3011
78.9794
26.3217
78.9725
25.3424
78.9661
24.3633
78.96
23.3843
78.9546
22.4055
78.9496
21.4269
78.9453
20.4485
78.9416
19.4702
78.9388
18.4921
78.9369
17.5141
78.9361
16.5362
78.9364
15.5585
78.9382
14.581
78.9417
13.6036
78.9473
12.6264
78.9556
11.6493
78.9671
10.6725
78.983
9.69583
79.0045
8.71942
79.0337
7.74328
79.0737
6.76744
79.1297
5.79194
79.2108
4.87589
74.523
4.11273
62.2323
3.47677
52.004
2.94649
43.496
2.50391
36.4231
2.13391
30.547
1.82385
25.6671
1.56319
21.6138
1.34327
18.2433
1.157
15.4338
0.99866
13.0831
0.863615
11.1076
0.748029
9.4404
0.648702
8.02849
0.562935
6.83022
0.488532
5.81192
0.423755
4.9458
0.367304
4.20826
0.318198
3.57936
0.275684
3.04223
0.239073
2.58297
0.207771
2.19001
0.181122
1.85405
0.158612
1.56693
0.139591
1.32222
1.11401
0.123718
27.2964
79.9597
26.3163
79.9525
25.3364
79.946
24.3567
79.9397
23.3772
79.9341
22.3979
79.9289
21.4187
79.9245
20.4397
79.9207
19.4608
79.9177
18.482
79.9157
17.5035
79.9146
16.525
79.9148
15.5467
79.9164
14.5686
79.9198
13.5906
79.9253
12.6129
79.9333
11.6352
79.9448
10.6578
79.9604
9.68059
79.9817
8.70362
80.0106
7.7269
80.0504
6.75049
80.1061
5.77444
80.1869
4.85788
75.4395
4.0943
62.9959
3.458
52.6403
2.92749
44.0265
2.4847
36.8659
2.11457
30.9171
1.80438
25.9772
1.54363
21.8745
1.32358
18.4634
1.13716
15.6202
0.978613
13.2417
0.843262
11.243
0.72727
9.55639
0.627437
8.12832
0.541084
6.91657
0.466057
5.88695
0.400673
5.01118
0.343697
4.26524
0.294176
3.62888
0.251371
3.08503
0.214578
2.61976
0.183188
2.2214
0.156513
1.88073
0.134023
1.58942
0.115031
1.34121
1.12987
0.0991732
25.6964
80.8821
24.774
80.875
23.8519
80.868
22.9298
80.8618
22.008
80.8559
21.0863
80.8506
20.1647
80.846
19.2433
80.8421
18.322
80.839
17.4009
80.8368
16.4798
80.8357
15.559
80.8356
14.6382
80.8372
13.7177
80.8403
12.7972
80.8458
11.8768
80.8537
10.9567
80.8649
10.0367
80.8804
9.11695
80.9015
8.1974
80.9302
7.27811
80.9697
6.35911
81.0251
5.44043
81.1056
4.57776
76.3022
3.85907
63.7146
3.26017
53.2392
2.76079
44.5259
2.34394
37.2828
1.99539
31.2657
1.70318
26.2694
1.45739
22.1203
1.24984
18.6709
1.07383
15.7962
0.923965
13.3916
0.795873
11.3711
0.685915
9.66635
0.591082
8.22315
0.50887
6.99879
0.437301
5.95852
0.374849
5.07363
0.320422
4.31967
0.273156
3.67614
0.232382
3.12581
0.197421
2.65472
0.167681
2.25114
0.142474
1.90593
0.121287
1.6106
0.103439
1.35906
1.14472
0.0885952
25.6133
81.8023
24.6934
81.7948
23.7735
81.7879
22.8541
81.7813
21.9346
81.7753
21.0152
81.77
20.0961
81.7651
19.1772
81.761
18.2583
81.7578
17.3396
81.7555
16.4211
81.7543
15.5026
81.7541
14.5843
81.7555
13.6661
81.7586
12.748
81.7638
11.8303
81.7715
10.9125
81.7827
9.99498
81.7979
9.07766
81.8188
8.16055
81.8473
7.24369
81.8865
6.32713
81.9417
5.41092
82.0218
4.55056
77.1626
3.83383
64.4313
3.23657
53.8364
2.73857
45.0239
2.3229
37.6985
1.97534
31.6132
1.68397
26.5608
1.43888
22.3654
1.23188
18.8779
1.05629
15.9718
0.906709
13.5411
0.778731
11.4991
0.668737
9.77634
0.573737
8.31815
0.491264
7.08126
0.419401
6.03038
0.356689
5.13634
0.302081
4.37428
0.254741
3.72348
0.213995
3.16655
0.179139
2.68958
0.149566
2.28072
0.124554
1.93095
0.103575
1.63158
0.0859277
1.37671
1.15937
0.0712695
25.6087
82.7228
24.6883
82.7152
23.7682
82.708
22.8482
82.7013
21.9284
82.6952
21.0087
82.6896
20.0892
82.6846
19.1698
82.6804
18.2506
82.6771
17.3314
82.6747
16.4125
82.6731
15.4937
82.6729
14.575
82.6742
13.6564
82.6772
12.738
82.6822
11.8197
82.6897
10.9016
82.7007
9.98372
82.7158
9.06602
82.7365
8.14853
82.7648
7.23131
82.8038
6.31438
82.8586
5.39779
82.9384
4.5371
78.0232
3.8201
65.1483
3.22263
54.4339
2.72449
45.522
2.30871
38.1142
1.96107
31.9609
1.66966
26.8522
1.42453
22.6105
1.21745
19.085
1.04177
16.1475
0.892018
13.6909
0.763791
11.6273
0.653458
9.88668
0.558045
8.41357
0.475125
7.16418
0.402845
6.10266
0.339797
5.19939
0.284975
4.4291
0.237542
3.77092
0.19682
3.20727
0.162068
2.72433
0.132652
2.31013
0.107816
1.95578
0.0870297
1.65237
0.069559
1.39418
1.17387
0.0550679
24.9446
83.6197
24.0479
83.6119
23.1512
83.6047
22.2547
83.5978
21.3585
83.5914
20.4623
83.5858
19.5663
83.5806
18.6704
83.5763
17.7748
83.5727
16.8792
83.5703
15.9837
83.5686
15.0883
83.5683
14.1932
83.5693
13.2981
83.5722
12.4032
83.5772
11.5084
83.5845
10.6138
83.5954
9.71933
83.6103
8.82507
83.6307
7.93103
83.6588
7.03724
83.6976
6.14374
83.7521
5.25059
83.8315
4.4119
78.8619
3.71322
65.847
3.13101
55.0161
2.64556
46.0075
2.24035
38.5194
1.90153
32.2997
1.61742
27.1363
1.37835
22.8496
1.17632
19.2871
1.00477
16.319
0.858412
13.8372
0.73294
11.7528
0.624809
9.99481
0.531153
8.50722
0.449649
7.24568
0.378554
6.17376
0.316553
5.26139
0.262712
4.48294
0.216224
3.8174
0.176416
3.24708
0.142529
2.75822
0.113933
2.33873
0.0898384
1.97988
0.0697285
1.67248
0.0528525
1.41105
1.18783
0.0388861
23.8606
84.478
23.0024
84.4701
22.1446
84.4625
21.2868
84.4556
20.4292
84.4491
19.5718
84.4432
18.7144
84.438
17.8572
84.4336
17
84.4299
16.1432
84.4271
15.2863
84.4255
14.4295
84.4251
13.5728
84.426
12.7163
84.4287
11.86
84.4335
11.0037
84.4408
10.1477
84.4514
9.29175
84.4662
8.436
84.4865
7.58046
84.5143
6.72515
84.5529
5.87012
84.6072
5.01541
84.6862
4.2128
79.6646
3.54416
66.5157
2.98695
55.5733
2.52231
46.4721
2.13439
38.9074
1.80991
32.6242
1.53771
27.4085
1.30852
23.0788
1.11465
19.4809
0.949841
16.4838
0.809035
13.9781
0.688113
11.8737
0.583703
10.0992
0.493089
8.59784
0.414099
7.32467
0.345142
6.24272
0.285016
5.32152
0.232873
4.53508
0.187938
3.86234
0.149565
3.28546
0.116982
2.7908
0.0895645
2.36615
0.0665132
2.00293
0.0473297
1.69166
0.0312423
1.42714
1.20111
0.0179644
23.856
85.3367
22.9975
85.3286
22.1391
85.3208
21.281
85.3137
20.423
85.307
19.5651
85.3011
18.7073
85.2958
17.8498
85.2911
16.9923
85.2874
16.1349
85.2845
15.2777
85.2827
14.4206
85.2822
13.5635
85.2831
12.7067
85.2855
11.8499
85.2902
10.9933
85.2975
10.1369
85.3078
9.28051
85.3225
8.42439
85.3426
7.56847
85.3703
6.71278
85.4085
5.85737
85.4626
5.00227
85.5413
4.19931
80.4675
3.53038
67.1846
2.97294
56.1308
2.50808
46.9369
2.12
39.2954
1.79539
32.9488
1.52309
27.6808
1.29377
23.3081
1.09978
19.6749
0.934803
16.6488
0.793744
14.1191
0.672511
11.9949
0.567721
10.204
0.476698
8.68886
0.397324
7.40405
0.328064
6.31198
0.267752
5.38183
0.215561
4.58727
0.170697
3.9072
0.13249
3.32366
0.100123
2.82317
0.0729636
2.39331
0.0501599
2.02573
0.0312221
1.7106
0.0153583
1.44301
1.21419
0.00228092
23.8515
86.1955
22.9928
86.1873
22.1344
86.1793
21.2761
86.172
20.4179
86.1652
19.5599
86.1591
18.7021
86.1536
17.8442
86.1489
16.9867
86.1449
16.1291
86.1421
15.2717
86.1401
14.4146
86.1394
13.5575
86.1402
12.7004
86.1426
11.8435
86.1471
10.9867
86.1542
10.1301
86.1644
9.27371
86.179
8.41747
86.1989
7.56141
86.2263
6.70561
86.2644
5.85007
86.3181
4.99486
86.3966
4.19179
81.2706
3.52278
67.8536
2.96528
56.6883
2.50041
47.4018
2.11232
39.6835
1.78774
33.2734
1.51546
27.9531
1.28618
23.5374
1.09218
19.8689
0.927185
16.8138
0.786067
14.2602
0.6647
12.1163
0.55973
10.309
0.468519
8.78007
0.389003
7.48356
0.319703
6.38128
0.259485
5.44205
0.207526
4.63923
0.162998
3.95173
0.125205
3.36146
0.0932797
2.85509
0.0665611
2.42003
0.0441767
2.04811
0.0256266
1.72915
0.0101059
1.45853
1.22695
-0.00266204