/*--------------------------------*- C++ -*----------------------------------*\
| =========                 |                                                 |
| \\      /  F ield         | OpenFOAM: The Open Source CFD Toolbox           |
|  \\    /   O peration     | Version:  2.3.0                                 |
|   \\  /    A nd           | Web:      www.OpenFOAM.org                      |
|    \\/     M anipulation  |                                                 |
\*---------------------------------------------------------------------------*/
FoamFile
{
    version     2.0;
    format      ascii;
    class       volVectorField;
    location    "100";
    object      U;
}
// * * * * * * * * * * * * * * * * * * * * * * * * * * * * * * * * * * * * * //

dimensions      [0 1 -1 0 0 0 0];

internalField   nonuniform List<vector> 
14137
(
(99.8641 -1.03083e-18 5.23603)
(99.8665 1.58839e-18 5.24111)
(99.869 -5.46632e-19 5.24651)
(99.8718 2.8066e-18 5.25227)
(99.8749 -1.71122e-18 5.25842)
(99.8781 1.16942e-18 5.26502)
(99.8816 0 5.27214)
(99.8854 0 5.27985)
(99.8895 -3.97039e-20 5.28823)
(99.8939 -3.44169e-19 5.29741)
(99.8987 1.75389e-18 5.3075)
(99.9038 -2.97663e-18 5.31868)
(99.9094 -3.95642e-19 5.33114)
(99.9155 2.02471e-18 5.34515)
(99.9221 1.7711e-18 5.36101)
(99.9294 -2.11912e-18 5.37917)
(99.9374 4.95368e-19 5.40018)
(99.9464 -4.50605e-18 5.42481)
(99.9563 -1.47537e-19 5.45412)
(99.9676 -2.40283e-18 5.48965)
(99.9806 0 5.53366)
(99.9956 3.12605e-18 5.58973)
(100.013 -1.12686e-19 5.66359)
(100.034 4.03136e-18 5.76343)
(100.056 2.45513e-18 5.89211)
(100.077 3.69162e-18 6.04849)
(100.097 4.55103e-18 6.23799)
(100.114 -3.13447e-18 6.46757)
(100.128 1.72686e-18 6.74517)
(100.137 -2.16462e-18 7.07985)
(100.141 -1.34442e-18 7.48155)
(100.139 3.66157e-18 7.96086)
(100.133 7.11287e-20 8.52828)
(100.125 -1.70897e-18 9.19342)
(100.119 -1.12212e-18 9.96372)
(100.124 -1.5037e-18 10.843)
(100.147 -6.13421e-20 11.8299)
(100.202 1.50865e-18 12.9167)
(100.3 0 14.0883)
(100.452 -2.49588e-18 15.3225)
(100.665 0 16.5913)
(100.942 0 17.8635)
(101.279 -9.6822e-19 19.1076)
(101.667 0 20.2959)
(102.093 -8.421e-19 21.4048)
(102.537 -4.51349e-19 22.421)
(102.994 0 23.3311)
(103.424 7.91212e-19 24.1466)
(103.875 -3.84388e-19 24.8381)
(99.8642 -1.60847e-18 5.23598)
(99.8666 0 5.24096)
(99.8693 5.56082e-19 5.24626)
(99.8723 -2.84376e-18 5.25192)
(99.8755 -1.77081e-18 5.25797)
(99.8789 5.99355e-19 5.26448)
(99.8827 1.25725e-18 5.2715)
(99.8867 -1.94456e-18 5.27911)
(99.8911 3.31699e-18 5.28741)
(99.8958 -1.40027e-18 5.2965)
(99.9009 -3.63206e-19 5.30651)
(99.9064 2.23512e-18 5.31761)
(99.9124 1.21232e-18 5.33)
(99.919 -4.21918e-19 5.34393)
(99.9261 -1.29755e-18 5.35973)
(99.934 -6.1941e-20 5.37782)
(99.9428 2.55265e-19 5.39878)
(99.9526 -6.15393e-19 5.42337)
(99.9636 2.83796e-19 5.45266)
(99.9762 2.647e-18 5.4882)
(99.9907 -3.19771e-18 5.53227)
(100.008 -3.04485e-18 5.58846)
(100.028 9.4523e-20 5.66258)
(100.053 2.61756e-19 5.76273)
(100.079 -5.89473e-18 5.89144)
(100.106 -3.36897e-18 6.04773)
(100.133 -2.272e-18 6.2371)
(100.159 -1.94489e-19 6.46647)
(100.184 -2.25096e-18 6.74373)
(100.207 0 7.07784)
(100.228 0 7.47858)
(100.248 3.76976e-19 7.95629)
(100.269 1.5591e-18 8.52113)
(100.294 1.65678e-18 9.18219)
(100.328 2.38601e-18 9.94622)
(100.38 1.44165e-18 10.8162)
(100.458 1.33409e-19 11.7897)
(100.573 -1.39794e-18 12.8577)
(100.738 1.5912e-19 14.004)
(100.961 2.98811e-18 15.2057)
(101.246 3.1143e-19 16.4343)
(101.595 -2.03068e-18 17.6591)
(102 9.48042e-19 18.8497)
(102.45 0 19.9803)
(102.93 1.78417e-18 21.0293)
(103.421 0 21.9863)
(103.917 7.39482e-19 22.8378)
(104.377 -8.83959e-19 23.6011)
(104.855 1.0147e-18 24.2349)
(99.8642 -5.68623e-19 5.23593)
(99.8668 5.51225e-19 5.2408)
(99.8696 1.14225e-18 5.24599)
(99.8727 1.13975e-18 5.25153)
(99.8761 -3.16195e-20 5.25746)
(99.8797 0 5.26384)
(99.8837 -5.97454e-19 5.27074)
(99.8879 1.92695e-18 5.27822)
(99.8925 -2.69096e-18 5.28638)
(99.8975 3.14783e-18 5.29534)
(99.903 -3.60959e-19 5.30521)
(99.9088 3.84881e-19 5.31617)
(99.9152 -2.37235e-18 5.32841)
(99.9222 4.15085e-19 5.34219)
(99.9299 -1.80839e-18 5.35783)
(99.9384 -6.28362e-20 5.37575)
(99.9478 0 5.39654)
(99.9583 -3.56797e-19 5.42094)
(99.9702 -2.11103e-18 5.45003)
(99.9838 0 5.48535)
(99.9996 2.76954e-18 5.5292)
(100.018 -3.01869e-18 5.58516)
(100.041 -3.3093e-19 5.65904)
(100.068 2.68342e-19 5.75882)
(100.099 -5.14655e-19 5.88694)
(100.13 0 6.04248)
(100.164 -8.28642e-20 6.23097)
(100.198 3.25191e-18 6.45928)
(100.234 2.06704e-18 6.73519)
(100.271 0 7.06755)
(100.309 0 7.46593)
(100.351 -2.22137e-18 7.94038)
(100.398 -1.61046e-18 8.50065)
(100.455 0 9.15526)
(100.528 2.80513e-19 9.91026)
(100.624 0 10.7677)
(100.753 1.94531e-19 11.7242)
(100.925 -2.24085e-19 12.7698)
(101.151 0 13.8872)
(101.438 -1.71727e-18 15.0527)
(101.788 0 16.2381)
(102.2 2.12446e-18 17.413)
(102.666 -1.81719e-18 18.5481)
(103.17 0 19.6193)
(103.7 1.15143e-19 20.6068)
(104.234 -6.62406e-19 21.5029)
(104.766 5.73724e-21 22.2951)
(105.254 9.60183e-19 23.0058)
(105.757 -1.07653e-18 23.5847)
(99.8643 5.33363e-19 5.23588)
(99.867 -1.13129e-18 5.24063)
(99.8699 -1.71252e-18 5.2457)
(99.8731 -5.86124e-19 5.25112)
(99.8767 5.67689e-19 5.25693)
(99.8805 0 5.2632)
(99.8846 -1.90291e-18 5.26997)
(99.8892 -1.31408e-18 5.27734)
(99.894 2.01732e-18 5.28538)
(99.8993 -1.39295e-18 5.29421)
(99.9051 -1.4925e-18 5.30396)
(99.9113 1.56071e-18 5.31479)
(99.9181 -2.04719e-18 5.32689)
(99.9256 -1.30673e-18 5.34053)
(99.9338 1.77e-18 5.35602)
(99.9428 1.88074e-18 5.3738)
(99.9529 -2.07968e-18 5.39441)
(99.9642 2.15972e-18 5.41864)
(99.9771 2.33774e-18 5.44754)
(99.9919 0 5.48267)
(100.009 0 5.5263)
(100.03 3.13268e-18 5.58204)
(100.055 3.72474e-18 5.65571)
(100.085 -4.4878e-18 5.75516)
(100.12 -3.52295e-19 5.88265)
(100.157 -4.04238e-18 6.03731)
(100.197 5.34049e-18 6.2247)
(100.241 1.03794e-19 6.45161)
(100.287 0 6.72569)
(100.338 0 7.05559)
(100.393 0 7.45064)
(100.456 0 7.92054)
(100.529 1.26615e-19 8.47456)
(100.617 2.46617e-18 9.12062)
(100.727 -3.20201e-18 9.86397)
(100.866 -2.50815e-18 10.7058)
(101.045 -1.88146e-19 11.6416)
(101.272 0 12.6605)
(101.556 2.17369e-19 13.7445)
(101.902 -2.49014e-19 14.8696)
(102.312 4.06047e-19 16.0077)
(102.78 -4.61714e-19 17.1297)
(103.296 5.2554e-19 18.208)
(103.844 1.72093e-18 19.2209)
(104.41 -9.26036e-19 20.1503)
(104.971 0 20.9904)
(105.527 0 21.7285)
(106.034 7.34567e-20 22.3908)
(106.552 -1.75456e-18 22.9171)
(99.8643 -5.94105e-19 5.23582)
(99.8671 1.19756e-18 5.24045)
(99.8702 1.22202e-18 5.2454)
(99.8735 1.90908e-18 5.2507)
(99.8772 6.34631e-19 5.2564)
(99.8812 0 5.26254)
(99.8856 -2.95859e-20 5.2692)
(99.8903 3.54578e-19 5.27644)
(99.8954 -3.61805e-19 5.28437)
(99.901 1.52703e-18 5.29308)
(99.9071 1.5518e-18 5.3027)
(99.9137 -3.7563e-19 5.31341)
(99.9209 2.11823e-18 5.32539)
(99.9287 -4.56212e-20 5.33889)
(99.9374 -1.68655e-18 5.35425)
(99.947 -2.48254e-19 5.37189)
(99.9577 2.12529e-18 5.39235)
(99.9698 -2.34882e-18 5.41642)
(99.9835 1.6154e-19 5.44516)
(99.9994 -2.76291e-18 5.4801)
(100.018 -3.2403e-18 5.52354)
(100.04 0 5.57906)
(100.067 -7.71716e-18 5.6525)
(100.101 9.36732e-18 5.75158)
(100.14 1.22248e-17 5.87838)
(100.182 4.10447e-18 6.03208)
(100.229 -5.40627e-18 6.21826)
(100.28 -1.11418e-19 6.44358)
(100.336 0 6.71557)
(100.399 -1.15096e-19 7.04264)
(100.47 1.35403e-19 7.43382)
(100.553 -3.14764e-18 7.89843)
(100.65 -1.23252e-19 8.44521)
(100.768 -2.78869e-18 9.08146)
(100.912 4.02412e-18 9.81169)
(101.09 2.33646e-18 10.6362)
(101.313 2.05963e-18 11.5496)
(101.588 -2.97999e-20 12.5402)
(101.924 -1.91571e-18 13.5894)
(102.322 2.81362e-19 14.673)
(102.784 0 15.7633)
(103.301 0 16.8317)
(103.862 -1.50471e-18 17.8518)
(104.452 0 18.8034)
(105.053 -1.12511e-18 19.6709)
(105.644 0 20.4514)
(106.222 -9.05227e-19 21.1331)
(106.744 -2.08646e-18 21.7474)
(107.273 1.25937e-18 22.2249)
(99.8644 0 5.23578)
(99.8672 -6.64484e-19 5.24031)
(99.8704 6.75152e-19 5.24516)
(99.8739 -3.10439e-18 5.25034)
(99.8777 -1.07014e-18 5.25593)
(99.8818 0 5.26196)
(99.8863 1.46964e-18 5.26851)
(99.8913 -3.83938e-19 5.27565)
(99.8966 3.9073e-19 5.28346)
(99.9024 2.89014e-20 5.29206)
(99.9087 0 5.30157)
(99.9156 -1.74046e-18 5.31215)
(99.9232 0 5.32401)
(99.9314 1.90522e-18 5.33739)
(99.9406 4.05242e-18 5.35261)
(99.9507 1.36975e-19 5.3701)
(99.9619 -1.39756e-19 5.39042)
(99.9747 2.41547e-18 5.41432)
(99.9892 -2.83633e-18 5.44288)
(100.006 3.09636e-18 5.47763)
(100.026 3.11357e-18 5.52085)
(100.049 -3.54157e-18 5.57614)
(100.079 -2.42323e-19 5.64933)
(100.115 -9.56741e-18 5.74801)
(100.158 -6.34648e-18 5.87408)
(100.204 0 6.02678)
(100.256 -6.17153e-18 6.21165)
(100.315 1.18677e-19 6.43525)
(100.38 0 6.70493)
(100.454 0 7.02888)
(100.54 5.18455e-18 7.41584)
(100.64 3.38734e-18 7.87473)
(100.759 -1.35969e-19 8.41374)
(100.902 0 9.03949)
(101.077 2.4939e-18 9.75567)
(101.292 -3.15876e-18 10.5616)
(101.556 -1.83468e-18 11.4511)
(101.876 3.27558e-20 12.4115)
(102.259 1.64953e-18 13.4236)
(102.707 0 14.4632)
(103.216 0 15.5032)
(103.776 -6.49492e-19 16.5169)
(104.375 1.45953e-18 17.4802)
(104.994 -3.53797e-18 18.3749)
(105.619 1.25738e-18 19.1863)
(106.229 8.44239e-19 19.9129)
(106.822 9.1737e-19 20.5422)
(107.356 -2.25283e-18 21.1089)
(107.898 5.89251e-19 21.5331)
(99.8644 3.52516e-19 5.23571)
(99.8673 -3.57461e-19 5.24014)
(99.8705 0 5.24488)
(99.8741 1.47075e-18 5.24998)
(99.878 1.50044e-18 5.25546)
(99.8823 0 5.2614)
(99.8869 1.98887e-19 5.26785)
(99.892 -4.0635e-19 5.27489)
(99.8975 2.07592e-19 5.2826)
(99.9035 -1.71338e-18 5.2911)
(99.9101 0 5.30051)
(99.9172 0 5.31099)
(99.925 0 5.32273)
(99.9336 0 5.336)
(99.943 -2.24373e-18 5.3511)
(99.9535 -2.26665e-18 5.36846)
(99.9652 1.45822e-19 5.38864)
(99.9785 -2.56596e-18 5.41239)
(99.9936 2.71273e-18 5.44078)
(100.011 -2.99913e-18 5.47534)
(100.032 0 5.51834)
(100.057 -7.97262e-20 5.57338)
(100.088 4.03184e-18 5.64626)
(100.126 4.87655e-18 5.74447)
(100.172 0 5.8698)
(100.222 0 6.02151)
(100.279 6.09321e-18 6.20511)
(100.343 7.16026e-20 6.42705)
(100.416 5.80319e-18 6.69453)
(100.499 4.02448e-18 7.01554)
(100.597 -5.113e-18 7.39846)
(100.713 -4.44622e-20 7.85184)
(100.851 -7.34031e-20 8.38334)
(101.017 -3.46464e-18 8.99896)
(101.22 -9.6813e-18 9.70156)
(101.467 3.16738e-18 10.4896)
(101.768 -2.36665e-18 11.356)
(102.128 0 12.2872)
(102.554 2.96106e-19 13.2635)
(103.044 -3.35832e-18 14.2606)
(103.595 2.01843e-18 15.2518)
(104.196 2.65635e-18 16.2103)
(104.834 1.61577e-18 17.1131)
(105.487 2.05961e-18 17.9449)
(106.141 -2.05384e-18 18.6936)
(106.77 -8.01749e-19 19.3611)
(107.379 -4.33045e-20 19.9345)
(107.919 2.28886e-18 20.4568)
(108.467 6.48676e-19 20.8383)
(99.8644 -1.14979e-18 5.23567)
(99.8673 0 5.24002)
(99.8706 1.57228e-18 5.24468)
(99.8743 -1.79719e-18 5.2497)
(99.8783 1.82852e-18 5.25511)
(99.8827 0 5.26096)
(99.8874 0 5.26734)
(99.8926 0 5.27429)
(99.8983 0 5.28192)
(99.9045 0 5.29034)
(99.9112 -1.89819e-18 5.29966)
(99.9185 0 5.31005)
(99.9266 0 5.3217)
(99.9354 0 5.33487)
(99.9451 0 5.34987)
(99.956 4.68517e-18 5.36713)
(99.9681 -2.49679e-18 5.38719)
(99.9818 2.62578e-18 5.41081)
(99.9975 0 5.43906)
(100.016 3.04889e-18 5.47346)
(100.037 0 5.51628)
(100.063 7.44402e-18 5.57111)
(100.096 -3.50322e-20 5.64376)
(100.136 5.17815e-18 5.74158)
(100.184 5.85834e-20 5.86623)
(100.238 -4.86233e-18 6.01698)
(100.299 0 6.19926)
(100.368 3.74837e-20 6.41944)
(100.448 1.82865e-19 6.68449)
(100.54 -4.05003e-18 7.00216)
(100.649 0 7.3805)
(100.778 0 7.82761)
(100.933 -5.52879e-18 8.35055)
(101.121 3.60458e-18 8.9546)
(101.349 4.97888e-18 9.64181)
(101.626 1.23376e-19 10.4098)
(101.96 2.23483e-18 11.2504)
(102.358 0 12.1497)
(102.822 -3.18224e-19 13.0878)
(103.352 2.96359e-18 14.0406)
(103.939 6.10539e-19 14.9822)
(104.572 -2.2908e-18 15.8882)
(105.234 5.5274e-20 16.7375)
(105.908 -5.30413e-19 17.5156)
(106.577 3.50142e-18 18.2108)
(107.219 -3.41658e-18 18.8263)
(107.837 -1.12486e-19 19.3509)
(108.386 -1.21931e-18 19.822)
(108.939 0 20.1546)
(104.148 0 25.4834)
(104.183 -3.06333e-20 26.1951)
(104.206 1.25685e-18 26.9629)
(104.275 -4.81768e-19 27.757)
(104.352 -2.02192e-18 28.6046)
(104.423 2.69834e-18 29.5203)
(104.496 -2.88116e-18 30.5065)
(104.577 1.35053e-18 31.5696)
(104.667 0 32.7206)
(104.77 7.48291e-19 33.9717)
(104.888 9.16832e-19 35.3367)
(105.027 -1.97172e-18 36.8332)
(105.191 1.96626e-18 38.4825)
(105.388 0 40.3214)
(105.616 -6.19976e-19 42.2981)
(105.871 -2.33262e-18 44.3235)
(106.158 2.59513e-18 46.3919)
(106.48 -1.10841e-18 48.4979)
(106.842 -1.14251e-19 50.6355)
(107.246 2.90755e-18 52.7995)
(107.696 -2.51589e-18 54.9815)
(108.186 1.91203e-18 57.1829)
(108.734 -1.10354e-18 59.3728)
(105.154 0 24.8618)
(105.219 2.49274e-19 25.5683)
(105.277 0 26.3291)
(105.383 -1.75015e-18 27.1149)
(105.501 5.42114e-19 27.9537)
(105.618 1.30129e-18 28.8598)
(105.743 0 29.8354)
(105.88 7.74656e-19 30.8875)
(106.027 -1.62637e-18 32.028)
(106.186 8.53224e-19 33.2695)
(106.364 -8.96975e-19 34.6262)
(106.565 2.03388e-18 36.1151)
(106.796 -2.24326e-18 37.7568)
(107.068 -1.01229e-19 39.5881)
(107.375 -2.12279e-18 41.5548)
(107.71 -8.04915e-19 43.5663)
(108.077 1.01324e-18 45.6165)
(108.478 -1.19608e-18 47.6996)
(108.917 1.2901e-18 49.8094)
(109.397 0 51.9408)
(109.92 -8.77067e-19 54.0845)
(110.483 -1.10068e-18 56.2433)
(111.092 0 58.386)
(111.732 1.39281e-18 60.5707)
(113.047 -2.04831e-18 64.9855)
(106.079 1.04741e-18 24.1881)
(106.173 0 24.8851)
(106.263 0 25.6383)
(106.4 0 26.4179)
(106.546 6.91357e-19 27.2519)
(106.693 -1.44387e-18 28.1535)
(106.852 -6.33387e-20 29.1243)
(107.028 1.57747e-18 30.1707)
(107.221 0 31.3036)
(107.432 0 32.5359)
(107.665 0 33.8821)
(107.927 -1.12654e-18 35.36)
(108.224 -1.22245e-18 36.99)
(108.57 5.03334e-18 38.8091)
(108.956 1.43934e-18 40.762)
(109.369 -9.06301e-19 42.7566)
(109.813 -1.05833e-18 44.7866)
(110.291 0 46.8459)
(110.806 0 48.9276)
(111.36 -1.69084e-18 51.027)
(111.955 2.82047e-18 53.1331)
(112.588 -6.68638e-20 55.2515)
(113.274 0 57.3404)
(113.961 0 59.4875)
(114.786 -4.54133e-20 61.4406)
(115.409 -2.09942e-18 63.7921)
(116.475 2.21668e-18 65.2208)
(116.72 4.01832e-18 68.3885)
(106.893 -6.2926e-19 23.499)
(107.016 1.17503e-18 24.1838)
(107.142 -1.91516e-18 24.923)
(107.318 1.29961e-18 25.6877)
(107.505 1.47903e-18 26.5069)
(107.695 -6.94569e-19 27.3942)
(107.896 0 28.3515)
(108.115 7.02626e-21 29.3858)
(108.351 8.81899e-19 30.5084)
(108.61 -1.95393e-18 31.7306)
(108.895 -1.14124e-18 33.0663)
(109.212 1.0314e-18 34.5334)
(109.569 -1.27257e-18 36.1523)
(109.981 -1.293e-18 37.9601)
(110.436 8.1116e-19 39.9001)
(110.919 -1.21326e-22 41.8787)
(111.434 1.03377e-18 43.8894)
(111.981 1.29261e-18 45.9259)
(112.564 -1.40969e-18 47.9811)
(113.183 -8.71082e-19 50.0506)
(113.843 -9.61639e-19 52.1224)
(114.536 1.12015e-18 54.2066)
(115.272 -1.38128e-18 56.2541)
(116.004 2.29737e-18 58.3733)
(116.86 8.73439e-19 60.2607)
(117.55 1.0107e-18 62.5977)
(118.662 0 63.8728)
(118.88 5.28119e-20 67.1206)
(121.039 -7.36647e-19 66.6756)
(107.627 -5.77149e-19 22.7889)
(107.772 0 23.4675)
(107.922 1.29454e-18 24.202)
(108.119 0 24.9629)
(108.33 3.10713e-20 25.7763)
(108.549 -4.64508e-18 26.6554)
(108.785 1.61564e-18 27.6027)
(109.041 -1.75564e-18 28.6259)
(109.318 1.87759e-18 29.7365)
(109.62 5.0716e-20 30.9465)
(109.953 -1.12291e-18 32.2699)
(110.321 2.28288e-18 33.7241)
(110.735 2.54263e-18 35.3295)
(111.208 -7.14257e-19 37.1233)
(111.728 1.61412e-18 39.0484)
(112.276 -9.10981e-19 41.0099)
(112.854 0 43.0009)
(113.464 1.32946e-18 45.0149)
(114.108 -2.2266e-18 47.0442)
(114.788 1.69775e-18 49.0847)
(115.507 0 51.1224)
(116.261 0 53.1698)
(117.069 1.39827e-18 55.1614)
(117.865 -7.77712e-19 57.2414)
(118.783 0 59.0458)
(119.511 0 61.3824)
(120.672 1.22761e-18 62.51)
(120.925 -2.78532e-18 65.7948)
(123.057 -8.31856e-20 65.2046)
(121.712 3.41564e-18 70.8246)
(108.269 0 22.0705)
(108.445 6.48627e-19 22.7291)
(108.631 -6.5133e-19 23.4421)
(108.865 0 24.1833)
(109.11 1.4975e-18 24.9815)
(109.363 1.58965e-18 25.8476)
(109.634 -2.52436e-22 26.7832)
(109.927 1.76576e-18 27.7952)
(110.243 2.84885e-21 28.8948)
(110.586 4.70846e-20 30.0938)
(110.963 -7.38145e-21 31.4061)
(111.38 1.17025e-18 32.8491)
(111.845 -1.27057e-18 34.4431)
(112.375 0 36.2255)
(112.956 0 38.1376)
(113.563 9.81799e-19 40.0836)
(114.2 1.14676e-18 42.0564)
(114.868 1.35806e-18 44.0493)
(115.569 -7.15112e-19 46.0541)
(116.303 8.64956e-19 48.0673)
(117.076 -1.05665e-18 50.0724)
(117.875 0 52.0919)
(118.722 -2.81289e-18 54.0446)
(119.551 1.57431e-18 56.1041)
(120.515 0 57.8307)
(121.273 1.10481e-18 60.1746)
(122.499 -2.41085e-18 61.1382)
(122.721 -7.15838e-19 64.5024)
(124.988 0 63.6663)
(123.565 0 69.3789)
(128.829 -1.93979e-18 65.2603)
(108.84 -6.31071e-19 21.3707)
(109.03 6.81467e-19 22.0347)
(109.231 -2.04134e-18 22.7491)
(109.48 -1.47464e-18 23.4858)
(109.748 7.54505e-19 24.2749)
(110.029 3.15642e-20 25.1297)
(110.33 -1.73039e-18 26.0527)
(110.656 -9.40809e-19 27.0515)
(111.008 -4.52708e-20 28.1375)
(111.391 -2.70276e-21 29.3224)
(111.809 4.49653e-20 30.6201)
(112.271 0 32.048)
(112.787 0 33.6262)
(113.372 7.42096e-19 35.3918)
(114.01 8.95242e-19 37.2866)
(114.674 3.76111e-20 39.2137)
(115.367 -1.12456e-18 41.1656)
(116.091 -6.93506e-19 43.1354)
(116.846 -7.75911e-19 45.1142)
(117.633 0 47.0991)
(118.458 1.05989e-18 49.0702)
(119.312 -2.45335e-18 51.0532)
(120.22 0 52.9497)
(121.1 0 54.9776)
(122.113 0 56.6173)
(122.9 -2.25643e-18 58.9708)
(124.173 1.22687e-18 59.794)
(124.425 -7.43265e-19 63.1651)
(126.659 1.51681e-18 62.2654)
(125.395 -1.76941e-18 67.809)
(130.369 1.84721e-18 63.7994)
(125.193 -2.19362e-18 73.4775)
(109.337 6.17943e-19 20.6135)
(109.575 -3.34253e-18 21.2174)
(109.82 3.41033e-18 21.8983)
(110.1 7.43196e-19 22.6196)
(110.396 1.58395e-18 23.3969)
(110.706 -4.10473e-18 24.2407)
(111.038 2.61621e-18 25.1543)
(111.396 9.59608e-19 26.1448)
(111.783 -1.99066e-18 27.2227)
(112.202 -1.08688e-18 28.4003)
(112.659 -1.12878e-18 29.6915)
(113.163 1.27656e-18 31.1136)
(113.723 -6.08654e-19 32.6869)
(114.356 -2.16429e-18 34.4489)
(115.043 -1.66076e-18 36.3391)
(115.756 -1.9978e-18 38.2596)
(116.497 1.10062e-18 40.2025)
(117.267 1.31263e-18 42.1607)
(118.068 8.01549e-19 44.1248)
(118.899 1.88424e-18 46.0925)
(119.765 -5.74974e-21 48.0412)
(120.652 2.43507e-18 50.0082)
(121.593 1.48663e-18 51.8721)
(122.5 -7.68073e-19 53.8915)
(123.556 5.26205e-20 55.4523)
(124.359 -1.1248e-18 57.8213)
(125.684 1.87797e-18 58.5157)
(125.943 -7.26386e-19 61.9007)
(128.19 0 60.9052)
(127.046 0 66.2839)
(131.826 0 62.374)
(127.065 0 71.687)
(139.249 0 63.2485)
(99.8644 -1.64914e-20 5.23565)
(99.8674 7.5832e-19 5.23992)
(99.8708 -1.13421e-18 5.24451)
(99.8745 1.92841e-18 5.24945)
(99.8786 -1.7758e-19 5.25478)
(99.883 1.62105e-18 5.26056)
(99.8879 1.45143e-18 5.26685)
(99.8932 1.91064e-18 5.27372)
(99.899 -2.17939e-18 5.28127)
(99.9053 4.47419e-19 5.2896)
(99.9122 1.6084e-18 5.29884)
(99.9198 0 5.30914)
(99.928 0 5.32071)
(99.9371 0 5.33378)
(99.9471 0 5.34868)
(99.9582 -2.28962e-18 5.36582)
(99.9707 2.27045e-18 5.38577)
(99.9848 1.59075e-19 5.40926)
(100.001 2.82517e-18 5.43737)
(100.02 -9.88565e-20 5.4716)
(100.042 1.00365e-19 5.51424)
(100.069 -3.66553e-18 5.56884)
(100.103 6.99074e-20 5.64122)
(100.145 -5.10872e-18 5.73866)
(100.196 -7.12472e-18 5.86281)
(100.252 -6.59874e-20 6.01295)
(100.317 -6.62723e-18 6.19448)
(100.391 4.46638e-18 6.41371)
(100.477 -5.97539e-18 6.67753)
(100.578 -6.30929e-20 6.99355)
(100.697 0 7.36958)
(100.84 -7.14063e-20 7.81342)
(101.012 5.80339e-18 8.33171)
(101.221 -1.16982e-19 8.92911)
(101.474 0 9.60686)
(101.781 0 10.3616)
(102.149 0 11.1841)
(102.585 4.00287e-18 12.0591)
(103.09 -3.65226e-19 12.9658)
(103.663 -7.33579e-20 13.8797)
(104.293 -1.82072e-18 14.775)
(104.967 -3.41924e-18 15.6281)
(105.667 1.15078e-18 16.4196)
(106.373 -1.32407e-18 17.1373)
(107.069 -1.73064e-18 17.7727)
(107.732 3.31355e-18 18.3302)
(108.365 -1.37914e-18 18.8021)
(108.923 1.61618e-18 19.2222)
(109.466 3.88616e-18 19.5595)
(99.8644 1.8412e-18 5.23561)
(99.8675 -2.24015e-18 5.23981)
(99.8709 -1.23609e-21 5.24432)
(99.8747 7.73623e-19 5.24918)
(99.8788 -1.76154e-18 5.25442)
(99.8834 -1.79879e-18 5.26012)
(99.8884 -1.63486e-18 5.26633)
(99.8938 1.87368e-20 5.27312)
(99.8998 3.46354e-18 5.28059)
(99.9062 0 5.28883)
(99.9133 0 5.29798)
(99.921 0 5.30818)
(99.9295 -2.00211e-18 5.31965)
(99.9388 0 5.33262)
(99.9491 1.3913e-19 5.34742)
(99.9605 -1.41157e-19 5.36445)
(99.9734 1.56608e-19 5.38426)
(99.9879 -2.42854e-19 5.40762)
(100.005 -2.69723e-18 5.43557)
(100.024 0 5.46964)
(100.047 0 5.51207)
(100.075 3.68178e-18 5.56644)
(100.11 -4.10712e-18 5.63854)
(100.155 -7.55323e-20 5.73565)
(100.208 1.40824e-17 5.85941)
(100.268 4.77743e-18 6.00914)
(100.337 6.57899e-18 6.19023)
(100.417 -4.53925e-18 6.40896)
(100.511 6.53731e-18 6.67222)
(100.621 0 6.98754)
(100.752 0 7.36262)
(100.91 4.45186e-18 7.80512)
(101.101 0 8.3214)
(101.333 0 8.91572)
(101.615 0 9.5887)
(101.957 -4.50702e-18 10.336)
(102.366 -6.15817e-18 11.1476)
(102.848 -3.44092e-18 12.007)
(103.404 -7.23026e-19 12.8926)
(104.029 4.51999e-18 13.7793)
(104.714 0 14.6412)
(105.441 2.4557e-18 15.4556)
(106.191 -1.38533e-19 16.2042)
(106.941 1.42508e-18 16.8766)
(107.677 0 17.4665)
(108.373 -2.45054e-18 17.9784)
(109.035 4.42802e-18 18.4137)
(109.624 2.12346e-19 18.7775)
(110.189 -3.14466e-18 19.1359)
(99.8644 3.70546e-19 5.23555)
(99.8675 0 5.23967)
(99.871 -3.8161e-19 5.24409)
(99.8748 3.86348e-19 5.24886)
(99.8791 0 5.25403)
(99.8837 -2.02084e-19 5.25964)
(99.8888 2.04684e-19 5.26576)
(99.8944 -1.67707e-18 5.27247)
(99.9004 -1.72312e-18 5.27985)
(99.9071 0 5.288)
(99.9143 1.85479e-18 5.29706)
(99.9222 2.42291e-19 5.30717)
(99.9309 -3.94699e-19 5.31854)
(99.9405 1.28081e-19 5.3314)
(99.9511 -2.33477e-18 5.34608)
(99.9628 -6.07101e-21 5.36299)
(99.976 2.45068e-18 5.38267)
(99.991 -2.46665e-18 5.40589)
(100.008 0 5.43367)
(100.028 9.92003e-20 5.46755)
(100.052 -1.00659e-19 5.50977)
(100.081 -3.62786e-18 5.56387)
(100.118 4.11493e-18 5.63566)
(100.165 0 5.73238)
(100.22 -7.02505e-18 5.8557)
(100.284 4.97681e-18 6.00496)
(100.357 5.80562e-20 6.18552)
(100.443 -4.87192e-18 6.40364)
(100.544 2.51368e-19 6.66619)
(100.664 4.68843e-18 6.98064)
(100.807 0 7.3546)
(100.981 -4.31991e-18 7.79553)
(101.192 6.44136e-18 8.30948)
(101.449 -1.56074e-19 8.90026)
(101.761 1.82909e-19 9.56785)
(102.138 4.32153e-18 10.3071)
(102.588 1.2574e-17 11.107)
(103.117 0 11.9499)
(103.724 0 12.8133)
(104.402 -4.62316e-18 13.6714)
(105.14 4.36828e-18 14.4986)
(105.919 3.01831e-18 15.2728)
(106.716 -2.56608e-18 15.9774)
(107.509 2.46129e-18 16.6031)
(108.281 4.11289e-18 17.1468)
(109.01 3.72103e-18 17.6096)
(109.695 -4.80092e-18 18.0068)
(110.317 3.84394e-18 18.3082)
(110.893 4.82511e-20 18.6489)
(99.8645 1.12934e-18 5.23552)
(99.8676 3.78517e-19 5.23956)
(99.8711 0 5.2439)
(99.875 -1.56904e-18 5.24858)
(99.8793 -3.98776e-19 5.25366)
(99.8841 -1.22537e-18 5.25918)
(99.8893 0 5.26522)
(99.8949 2.13678e-19 5.27184)
(99.9011 3.37452e-21 5.27912)
(99.9079 1.58249e-18 5.28718)
(99.9153 -3.70996e-18 5.29615)
(99.9234 0 5.30616)
(99.9323 1.9891e-18 5.31743)
(99.9421 0 5.33019)
(99.953 2.17949e-18 5.34476)
(99.9651 0 5.36154)
(99.9787 -2.27985e-18 5.38109)
(99.9941 2.44232e-18 5.40415)
(100.012 -9.12579e-20 5.43177)
(100.033 3.1764e-18 5.46546)
(100.057 5.51513e-20 5.50745)
(100.087 -1.1792e-19 5.56128)
(100.125 4.41948e-18 5.63273)
(100.174 -5.33099e-18 5.72904)
(100.232 -6.11666e-20 5.85186)
(100.299 -4.84255e-18 6.00055)
(100.377 -6.96336e-18 6.18044)
(100.468 9.57797e-18 6.39778)
(100.576 3.02956e-19 6.65933)
(100.705 -4.70368e-18 6.97249)
(100.861 0 7.3447)
(101.049 0 7.78316)
(101.279 -6.46479e-18 8.29355)
(101.559 0 8.87913)
(101.9 -6.85001e-18 9.53913)
(102.311 -1.63967e-19 10.2675)
(102.801 -6.25096e-18 11.0521)
(103.373 0 11.8743)
(104.026 7.10351e-18 12.7107)
(104.753 3.44721e-18 13.5352)
(105.539 -3.02714e-18 14.3226)
(106.362 -2.95254e-18 15.0516)
(107.201 4.56067e-18 15.7071)
(108.03 -2.49953e-18 16.2813)
(108.832 -8.62863e-18 16.7748)
(109.586 0 17.1852)
(110.287 1.70017e-18 17.5385)
(110.923 2.06414e-18 17.7929)
(111.512 -4.90961e-18 18.0886)
(99.8645 -1.11271e-18 5.2355)
(99.8676 -3.7793e-19 5.23946)
(99.8712 0 5.24371)
(99.8751 1.55055e-18 5.24831)
(99.8795 2.78987e-18 5.2533)
(99.8844 2.01233e-18 5.25874)
(99.8897 0 5.26469)
(99.8955 3.40457e-18 5.27122)
(99.9018 0 5.27841)
(99.9088 -1.78236e-18 5.28638)
(99.9163 5.56258e-18 5.29525)
(99.9246 0 5.30516)
(99.9338 -1.26721e-19 5.31633)
(99.9438 -3.93284e-18 5.32898)
(99.955 -1.34464e-19 5.34342)
(99.9674 0 5.36008)
(99.9813 0 5.3795)
(99.9972 -5.35185e-18 5.40241)
(100.015 8.55235e-20 5.42985)
(100.037 3.12802e-18 5.46333)
(100.062 0 5.50509)
(100.093 -6.21903e-20 5.55864)
(100.133 -4.15892e-18 5.62973)
(100.183 1.04579e-17 5.72558)
(100.244 7.32803e-18 5.84785)
(100.314 5.09883e-18 5.9959)
(100.396 1.3982e-17 6.17503)
(100.493 -9.83515e-18 6.39141)
(100.608 -6.61279e-18 6.65175)
(100.747 4.87627e-18 6.96331)
(100.914 6.99915e-18 7.33332)
(101.117 0 7.76872)
(101.366 7.05954e-18 8.27471)
(101.669 -1.7089e-19 8.85397)
(102.038 6.9743e-18 9.50489)
(102.482 -1.71875e-19 10.2205)
(103.009 -6.96755e-18 10.9874)
(103.623 0 11.7859)
(104.321 -1.35956e-17 12.5919)
(105.094 2.51632e-19 13.3791)
(105.923 8.5267e-19 14.1228)
(106.788 -9.9307e-19 14.803)
(107.662 -2.69774e-18 15.4071)
(108.522 0 15.928)
(109.349 3.25339e-18 16.3701)
(110.123 1.37162e-18 16.7289)
(110.836 -1.72027e-18 17.0369)
(111.481 -4.27459e-18 17.2513)
(112.085 3.8917e-18 17.5082)
(99.8645 -2.99645e-18 5.23544)
(99.8677 0 5.23931)
(99.8712 -3.83531e-19 5.24348)
(99.8753 3.88035e-19 5.24799)
(99.8797 -3.15032e-18 5.2529)
(99.8847 3.24329e-18 5.25825)
(99.8901 -3.31468e-18 5.2641)
(99.896 -3.363e-18 5.27054)
(99.9025 -3.48759e-18 5.27764)
(99.9095 0 5.28552)
(99.9173 -3.44075e-18 5.29429)
(99.9258 -2.36557e-19 5.3041)
(99.9351 0 5.31515)
(99.9454 8.18967e-18 5.32769)
(99.9568 1.34164e-19 5.34201)
(99.9696 -4.63426e-18 5.35854)
(99.9839 4.9198e-18 5.3778)
(100 5.19482e-18 5.40055)
(100.019 0 5.4278)
(100.041 -6.08071e-18 5.46107)
(100.067 -5.53206e-20 5.50256)
(100.099 5.60719e-20 5.5558)
(100.14 -7.18938e-20 5.62649)
(100.193 -5.12596e-18 5.72182)
(100.256 -7.22014e-18 5.84344)
(100.33 -5.02439e-18 5.99073)
(100.416 -7.07824e-18 6.16893)
(100.518 5.0759e-18 6.38416)
(100.641 -1.63045e-19 6.64301)
(100.788 -4.80592e-18 6.95261)
(100.967 -6.90335e-18 7.31994)
(101.186 -8.72623e-20 7.75162)
(101.453 -6.86345e-18 8.25238)
(101.779 0 8.82426)
(102.176 7.16939e-18 9.46479)
(102.652 -4.98054e-18 10.166)
(103.216 7.0838e-18 10.9134)
(103.871 -5.23755e-18 11.6864)
(104.611 6.91056e-18 12.4603)
(105.426 -4.7445e-18 13.2087)
(106.296 0 13.9079)
(107.197 0 14.5388)
(108.105 2.93436e-18 15.091)
(108.992 -9.74019e-19 15.5589)
(109.839 -3.66635e-18 15.9502)
(110.631 -1.52826e-18 16.2604)
(111.355 3.61886e-18 16.524)
(112.009 2.18061e-18 16.6984)
(112.626 0 16.9179)
(99.8645 3.36821e-18 5.2354)
(99.8677 -3.80096e-19 5.23918)
(99.8713 0 5.24326)
(99.8754 0 5.24768)
(99.8799 0 5.2525)
(99.8849 -3.23279e-18 5.25775)
(99.8904 -3.07097e-20 5.26352)
(99.8965 2.13915e-19 5.26986)
(99.9031 3.25555e-18 5.27686)
(99.9103 -3.60874e-18 5.28464)
(99.9182 0 5.29331)
(99.9269 -4.10642e-18 5.30302)
(99.9365 -3.7719e-18 5.31396)
(99.947 -4.02221e-18 5.32637)
(99.9587 4.27155e-18 5.34057)
(99.9717 -5.05001e-20 5.35696)
(99.9864 -9.81472e-18 5.37607)
(100.003 -5.27537e-18 5.39865)
(100.022 5.6848e-18 5.42571)
(100.045 -6.08521e-18 5.45875)
(100.072 -1.01528e-19 5.49997)
(100.105 6.26659e-20 5.55287)
(100.147 8.60064e-18 5.62314)
(100.202 4.51065e-20 5.71791)
(100.268 -5.39706e-20 5.83883)
(100.344 -5.20666e-18 5.98529)
(100.435 0 6.16245)
(100.543 8.77117e-20 6.37635)
(100.672 -7.40177e-18 6.63349)
(100.829 0 6.94081)
(101.02 0 7.30503)
(101.253 0 7.73242)
(101.538 0 8.22716)
(101.887 0 8.79062)
(102.311 -7.35288e-18 9.41943)
(102.819 -2.58956e-19 10.1046)
(103.419 -2.63155e-19 10.8305)
(104.113 5.87214e-18 11.5757)
(104.894 -4.295e-19 12.3149)
(105.749 -5.18894e-18 13.0221)
(106.657 4.61495e-19 13.6744)
(107.592 -5.19395e-18 14.2547)
(108.527 -3.71644e-18 14.7548)
(109.437 9.20535e-19 15.1701)
(110.302 3.58874e-18 15.5109)
(111.107 -3.06684e-18 15.7732)
(111.84 1.92748e-18 15.9927)
(112.499 -2.25649e-18 16.1283)
(113.124 1.41475e-18 16.3076)
(99.8645 -2.6513e-18 5.23537)
(99.8677 6.2427e-22 5.23907)
(99.8714 2.71939e-18 5.24306)
(99.8755 -3.93538e-19 5.24739)
(99.8801 -3.20978e-18 5.25211)
(99.8852 2.00824e-19 5.25728)
(99.8908 6.85409e-18 5.26295)
(99.897 3.41852e-18 5.26919)
(99.9037 0 5.2761)
(99.9111 3.57907e-18 5.28378)
(99.9192 0 5.29234)
(99.928 3.82891e-18 5.30195)
(99.9378 -3.95219e-20 5.31278)
(99.9486 0 5.32507)
(99.9605 -4.36348e-18 5.33914)
(99.9739 4.60269e-18 5.35539)
(99.9889 4.8843e-18 5.37435)
(100.006 -6.1319e-20 5.39675)
(100.026 -1.13143e-17 5.42361)
(100.049 6.21586e-18 5.45642)
(100.077 -7.03661e-18 5.49736)
(100.111 1.12868e-19 5.54992)
(100.155 -8.55691e-18 5.61975)
(100.211 0 5.71393)
(100.279 0 5.83411)
(100.36 1.03578e-17 5.97966)
(100.455 -7.35522e-18 6.15569)
(100.568 5.14928e-18 6.36815)
(100.704 7.31782e-18 6.62338)
(100.87 0 6.92815)
(101.072 0 7.28885)
(101.32 9.29843e-20 7.71138)
(101.624 -1.09637e-19 8.19933)
(101.996 1.91065e-19 8.75335)
(102.446 7.75654e-18 9.36912)
(102.985 5.24327e-18 10.0366)
(103.62 -7.83248e-18 10.7391)
(104.35 3.81435e-19 11.4545)
(105.169 -4.46391e-19 12.1572)
(106.061 1.05331e-17 12.8214)
(107.003 7.25424e-18 13.4256)
(107.968 4.00645e-18 13.9537)
(108.928 7.35748e-19 14.4)
(109.858 0 14.7618)
(110.737 2.49013e-18 15.0517)
(111.552 0 15.2662)
(112.291 0 15.4418)
(112.952 -2.4328e-18 15.5399)
(113.581 3.00335e-18 15.6798)
(99.8645 2.6199e-18 5.23533)
(99.8678 3.80386e-19 5.23895)
(99.8715 2.65577e-20 5.24285)
(99.8757 0 5.24709)
(99.8803 6.37084e-18 5.25172)
(99.8855 -3.26039e-18 5.25679)
(99.8912 -3.30106e-18 5.26237)
(99.8975 2.9956e-20 5.26852)
(99.9043 0 5.27533)
(99.9119 0 5.28291)
(99.9201 -2.34307e-19 5.29137)
(99.9292 -6.14396e-21 5.30086)
(99.9391 4.21912e-18 5.31157)
(99.9502 0 5.32375)
(99.9624 0 5.33769)
(99.9761 0 5.35379)
(99.9915 1.5758e-19 5.37259)
(100.009 5.05326e-18 5.39481)
(100.029 5.70966e-18 5.42146)
(100.053 6.09829e-18 5.45402)
(100.082 6.84424e-18 5.49467)