/*--------------------------------*- C++ -*----------------------------------*\
| =========                 |                                                 |
| \\      /  F ield         | OpenFOAM: The Open Source CFD Toolbox           |
|  \\    /   O peration     | Version:  2.3.0                                 |
|   \\  /    A nd           | Web:      www.OpenFOAM.org                      |
|    \\/     M anipulation  |                                                 |
\*---------------------------------------------------------------------------*/
FoamFile
{
    version     2.0;
    format      ascii;
    class       volScalarField;
    location    "300";
    object      omega;
}
// * * * * * * * * * * * * * * * * * * * * * * * * * * * * * * * * * * * * * //

dimensions      [0 0 -1 0 0 0 0];

internalField   nonuniform List<scalar> 
28552
(
5.72124
6.45478
7.26509
8.20221
9.3318
10.6975
12.3582
14.4015
16.9463
20.1537
24.2519
29.5667
36.5854
46.1341
58.1114
73.0955
91.7559
114.92
143.631
179.103
223.132
277.189
345.699
427.489
540.075
664.027
863.783
1040.79
1412.39
1782.9
2599.24
3592.78
4705.8
3427.56
5.8638
6.64923
7.47441
8.42568
9.58245
10.9793
12.6748
14.759
17.3511
20.6123
24.7709
30.1523
37.2416
46.8617
58.8888
73.8889
92.5173
115.582
144.113
179.279
222.91
276.298
344.147
424.652
535.929
657.982
854.662
1030.26
1396.3
1760.23
2558.21
3552.32
4675.75
3453.33
6.00991
6.85328
7.69764
8.66684
9.85347
11.2831
13.014
15.1391
17.7777
21.0913
25.3085
30.754
37.9116
47.6014
59.6797
74.701
93.3112
116.301
144.695
179.614
222.938
275.76
343.116
422.537
532.846
653.213
847.852
1021.87
1385.21
1743.21
2544.71
3531.78
4629.87
3502.15
6.15717
7.06316
7.92447
8.91317
10.1299
11.5922
13.3591
15.5257
18.2113
21.578
25.8548
31.3659
38.5936
48.3569
60.4959
75.5556
94.1751
117.132
145.45
180.204
223.349
275.756
342.848
421.438
531.285
650.21
844.127
1016.38
1379.99
1733.86
2536.43
3525.07
4566.12
3565.79
6.29161
7.25467
8.12882
9.13669
10.38
11.8702
13.6688
15.8713
18.597
22.0079
26.3335
31.8972
39.1796
48.9968
61.1742
76.2467
94.8472
117.737
145.944
180.485
223.395
275.318
342.019
419.686
528.77
646.091
838.497
1008.98
1370.54
1719.95
2517.04
3500.48
4497.93
3644.81
6.42384
7.44862
8.32771
9.35501
10.6247
12.1416
13.9707
16.2081
18.9723
22.426
26.7985
32.4127
39.7475
49.6165
61.8319
76.9195
95.5071
118.341
146.453
180.805
223.52
275.005
341.385
418.198
526.695
642.441
833.862
1002.44
1363.14
1708.57
2500.87
3481.66
4432.18
3747.02
6.53214
7.63294
8.51462
9.56083
10.855
12.3961
14.2532
16.5224
19.3213
22.8129
27.2265
32.8842
40.2627
50.1728
62.4139
77.5034
96.0645
118.826
146.83
180.972
223.472
274.499
340.515
416.453
524.284
638.419
828.617
995.462
1354.25
1695.93
2479.72
3454.42
4366.17
3884.95
6.59508
7.79561
8.6881
9.75416
11.0718
12.6353
14.5179
16.8158
19.6457
23.1706
27.6198
33.3138
40.7275
50.6675
62.9214
77.9976
96.5154
119.184
147.055
180.957
223.201
273.725
339.293
414.295
521.281
633.732
822.242
987.487
1342.97
1680.83
2453.14
3419.72
4299.57
4074.56
6.63887
7.94464
8.8519
9.93717
11.2768
12.861
14.7675
17.092
19.9505
23.5064
27.9881
33.7156
41.1615
51.1288
63.3946
78.4593
96.9397
119.525
147.283
180.97
223.001
273.077
338.292
412.449
518.831
629.742
817.113
981.081
1334.16
1669.81
2429.47
3392.64
4217.47
4348.46
6.69944
8.07732
8.99991
10.1043
11.4623
13.0644
14.9916
17.3388
20.2216
23.8032
28.3114
34.065
41.5345
51.5188
63.7852
78.8266
97.2582
119.748
147.381
180.842
222.644
272.26
337.092
410.394
516.12
625.51
811.578
974.348
1324.29
1657.49
2402.33
3361.66
4125.83
4789.96
6.78118
8.22068
9.14695
10.2733
11.6487
13.2684
15.2166
17.5864
20.4935
24.101
28.636
34.4164
41.9108
51.9142
64.1856
79.2105
97.6042
120.012
147.541
180.798
222.408
271.596
336.113
408.582
513.798
621.647
806.79
968.196
1315.78
1646.2
2377.16
3324.32
4054.89
5617.83
6.85213
8.3341
9.26773
10.4144
11.8014
13.4337
15.3965
17.781
20.7026
24.3237
28.8698
34.6565
42.1493
52.1356
64.3639
79.3108
97.5878
119.814
147.107
180
221.174
269.686
333.4
404.696
508.316
614.307
795.987
955.946
1295.86
1620.7
2332.97
3256.07
4051.67
8099.54
6.92321
8.44814
9.38402
10.552
11.9496
13.5943
15.5719
17.9715
20.9084
24.5443
29.1037
34.9006
42.3975
52.3765
64.578
79.4715
97.6687
119.765
146.9
179.533
220.437
268.47
331.75
402.198
505.07
609.704
789.774
949.011
1284.72
1608.05
2303.01
3225.75
4096.38
12133.1
6.99344
8.55916
9.49511
10.685
12.092
13.7484
15.7406
18.1551
21.1074
24.7588
29.3325
35.1415
42.6463
52.6241
64.8101
79.6666
97.8086
119.808
146.832
179.262
219.977
267.616
330.584
400.305
502.578
606.075
784.622
943.602
1274.88
1597.26
2272.47
3189.59
4488.72
17621.7
7.05903
8.65494
9.5938
10.8039
12.2166
13.8814
15.884
18.3085
21.2701
24.929
29.5069
35.3144
42.8088
52.7599
64.8949
79.6672
97.69
119.508
146.302
178.383
218.681
265.688
327.906
396.553
497.362
599.255
774.649
932.234
1256.57
1573.26
2228.37
3115.74
5442.89
24161.5
7.12141
8.73822
9.68371
10.9131
12.3301
14.0015
16.0127
18.4455
21.4147
25.0791
29.6589
35.4627
42.9444
52.8673
64.9525
79.6454
97.5604
119.218
145.817
177.604
217.572
264.06
325.709
393.472
493.183
593.817
766.816
923.7
1242.18
1556.19
2191.05
3092.29
7261.9
31040.8
7.18513
8.82413
9.77412
11.0243
12.4457
14.1243
16.1452
18.5881
21.5675
25.241
29.8278
35.635
43.1145
53.0244
65.0826
79.7271
97.5766
119.129
145.604
177.184
216.938
263.041
324.308
391.397
490.299
590.05
760.986
917.806
1230.38
1543.03
2159.54
3165.16
9757.15
37362.1
7.24418
8.89336
9.85389
11.1233
12.547
14.2302
16.257
18.7063
21.6912
25.3677
29.9535
35.7534
43.2159
53.0919
65.0941
79.6519
97.3849
118.767
145.031
176.299
215.683
261.248
321.845
388.042
485.581
584.105
752.089
907.96
1213.59
1521.49
2115.41
3269.11
12373.4
42655.8
7.30114
8.95542
9.92942
11.2188
12.6455
14.3336
16.3673
18.8247
21.818
25.5018
30.093
35.8949
43.3546
53.2184
65.1982
79.7162
97.3978
118.696
144.868
175.975
215.204
260.469
320.804
386.476
483.462
581.489
748.378
905.43
1204.71
1514.34
2100.38
3712.38
14910.2
46220.5
7.35696
9.0121
10.0001
11.3078
12.7356
14.4257
16.4621
18.9229
21.9186
25.6019
30.1878
35.9772
43.4139
53.2366
65.1517
79.5724
97.1226
118.234
144.163
174.931
213.719
258.402
317.91
382.644
477.956
574.637
737.932
893.087
1184.37
1486.07
2053.25
3927.03
16508.7
48653.9
7.41105
9.06366
10.0679
11.3949
12.8251
14.5184
16.5592
19.0265
22.0291
25.7183
30.3086
36.0998
43.5348
53.3486
65.2485
79.6421
97.1598
118.215
144.091
174.752
213.455
257.938
317.314
381.918
477.046
573.964
735.413
893.263
1177.37
1484.23
2089.02
4626.39
18016.3
49805.2
7.4645
9.11303
10.1337
11.4795
12.9117
14.6069
16.6506
19.1228
22.1305
25.8233
30.4149
36.2036
43.631
53.4274
65.299
79.6463
97.1021
118.063
143.818
174.296
212.766
256.915
315.827
379.868
473.965
570.066
729.065
885.332
1163
1463.1
2082.84
5087.27
18774.2
50308.6
7.51683
9.15915
10.1968
11.5606
12.9945
14.6907
16.7357
19.2113
22.2223
25.9165
30.5065
36.2888
43.7032
53.4749
65.3075
79.5951
96.9704
117.815
143.42
173.685
211.877
255.651
314.039
377.463
470.483
565.665
722.258
877.077
1148.23
1442.87
2083.76
5533.75
19318.5
50384.1
7.56457
9.19349
10.2522
11.634
13.0711
14.7686
16.8158
19.2965
22.3136
26.0135
30.6085
36.3942
43.8108
53.5807
65.4099
79.6879
97.0534
117.875
143.462
173.68
211.937
255.718
314.012
377.555
469.991
566
720.104
877.343
1141.85
1444.43
2191.67
6238.71
20019.2
49960.5
7.60974
9.21946
10.3008
11.6989
13.1387
14.8353
16.8817
19.3638
22.3825
26.0824
30.6746
36.4532
43.8573
53.6044
65.399
79.6247
96.9184
117.639
143.085
173.114
211.095
254.545
312.284
375.282
466.545
561.66
713.133
867.628
1126.33
1420.51
2207.49
6661.16
20408.7
49410.8
7.65671
9.25328
10.3542
11.7694
13.2124
14.9087
16.9554
19.4402
22.4622
26.1642
30.7564
36.5315
43.928
53.6589
65.4277
79.6132
96.8515
117.492
142.83
172.712
210.483
253.67
311.004
373.557
463.971
558.421
707.657
861.182
1114.66
1409.42
2288.14
7220.74
20991.6
48769.9
7.70147
9.28338
10.4048
11.837
13.2845
14.9809
17.0288
19.5178
22.5452
26.2524
30.849
36.6273
44.0262
53.756
65.5218
79.6989
96.9253
117.544
142.851
172.707
210.461
253.597
310.718
373.278
462.97
557.721
704.576
858.869
1106.36
1412.56
2447.4
7945.71
21804.9
48006
7.7458
9.31491
10.4555
11.9043
13.3563
15.052
17.1008
19.593
22.6248
26.3358
30.935
36.7136
44.1106
53.8327
65.5846
79.7379
96.9276
117.492
142.716
172.463
210.031
252.966
309.683
371.893
460.66
554.779
699.548
852.643
1094.33
1403.96
2573.63
8562.59
22641.2
47281.5
7.78944
9.34824
10.5074
11.9732
13.4307
15.1265
17.1778
19.6753
22.7144
26.433
31.0398
36.826
44.2313
53.9602
65.7199
79.8928
97.1117
117.695
142.929
172.71
210.248
253.267
309.8
372.289
460.381
555.243
697.893
852.144
1090.11
1431.99
2870.03
9428.87
23920.8
46487
7.83078
9.37791
10.5556
12.0371
13.5003
15.1951
17.2479
19.7492
22.7939
26.5176
31.129
36.9187
44.3266
54.0547
65.8104
79.9739
97.1747
117.732
142.945
172.684
210.098
253.036
309.235
371.616
458.838
553.528
693.936
847.3
1080.9
1441.36
3116.95
10264.2
25487.2
45667.7
7.87081
9.40697
10.6018
12.0979
13.5666
15.2591
17.3122
19.8152
22.8628
26.5883
31.1996
36.9865
44.3878
54.1019
65.8336
79.9612
97.1056
117.59
142.681
172.279
209.441
252.122
307.81
369.73
455.883
549.642
687.627
838.243
1066.64
1430.29
3308.43
11052.9
27118
45055.7
7.9112
9.4414
10.6519
12.1633
13.638
15.3291
17.3847
19.8917
22.9455
26.6767
31.2935
37.0851
44.4905
54.2058
65.9356
80.0601
97.2051
117.678
142.733
172.305
209.363
252.003
307.417
369.309
454.723
548.457
684.394
834.64
1060.6
1468.02
3688.36
12123.1
29022.4
44575.3
7.9521
9.48162
10.7057
12.2326
13.7133
15.4031
17.4624
19.9743
23.0357
26.774
31.3981
37.1971
44.6151
54.3407
66.0776
80.2091
97.3518
117.827
142.851
172.417
209.363
251.987
307.083
368.961
453.531
547.176
680.945
830.586
1054.71
1513.47
4115.57
13239.7
30898.9
44192.4
7.99145
9.52152
10.7586
12.3009
13.7879
15.4764
17.5404
20.0578
23.1278
26.8777
31.5146
37.3268
44.7609
54.5001
66.2537
80.4065
97.5619
118.064
143.077
172.681
209.54
252.223
307.026
369.026
452.792
546.544
678.275
827.653
1053.36
1594.03
4660.76
14419.1
31991.8
43835.3
8.03034
9.56383
10.812
12.3691
13.8617
15.5481
17.6163
20.1379
23.2151
26.9711
31.616
37.4358
44.8759
54.6173
66.3684
80.5156
97.6471
118.125
143.065
172.61
209.285
251.841
306.23
367.965
450.798
543.901
673.492
821.169
1044.88
1645.49
5120.43
15307.5
32397.9
43670.6
8.06961
9.61174
10.869
12.4426
13.9409
15.6261
17.7007
20.2285
23.3157
27.0812
31.737
37.5688
45.0225
54.7719
66.5324
80.6918
97.8208
118.308
143.213
172.764
209.32
251.871
305.945
367.657
449.706
542.61
670.294
817.4
1045.62
1760.37
5706.67
16125.5
32357.1
43661.4
8.11164
9.66422
10.93
12.5185
14.0224
15.707
17.789
20.3235
23.4215
27.1974
31.8652
37.7108
45.1799
54.9382
66.7109
80.8869
98.0172
118.521
143.393
172.959
209.392
251.945
305.686
367.363
448.58
541.208
666.936
813.383
1047.93
1894.88
6287.65
16739
32002.3
43754.3
8.15723
9.71936
10.9935
12.596
14.1056
15.7903
17.8804
20.4221
23.5317
27.3186
31.9996
37.8603
45.3464
55.1142
66.9008
81.0961
98.2283
118.751
143.588
173.168
209.472
252.019
305.417
367.033
447.425
539.713
663.572
809.467
1053.99
2060.47
6867.21
17189.7
31405
43911.7
8.20373
9.7752
11.0571
12.6731
14.1881
15.8734
17.972
20.521
23.6425
27.4405
32.135
38.0113
45.5148
55.2923
67.0929
81.3084
98.4428
118.986
143.79
173.389
209.571
252.12
305.195
366.763
446.375
538.342
660.448
806.251
1066.86
2266.29
7438.24
17472
30638.1
44106.9
8.25856
9.83781
11.1281
12.7566
14.2771
15.9648
18.0736
20.6317
23.767
27.5788
32.2901
38.1864
45.7127
55.5037
67.3271
81.5744
98.7243
119.307
144.098
173.746
209.831
252.425
305.21
366.788
445.658
537.375
657.862
804.402
1090.99
2521.73
8005.39
17628.5
29755.5
44280.4
8.31962
9.90525
11.2037
12.8436
14.369
16.0601
18.1792
20.7465
23.8954
27.7203
32.4475
38.3622
45.9082
55.7084
67.5474
81.8169
98.9673
119.569
144.318
173.974
209.917
252.475
304.903
366.333
444.389
535.572
654.362
801.038
1112.81
2775.63
8495.37
17586.2
28837.5
44491.8
8.38212
9.97427
11.2809
12.9319
14.4624
16.1585
18.2894
20.8677
24.0326
27.8738
32.6212
38.5605
46.1347
55.9529
67.8234
82.1372
99.3178
119.979
144.741
174.479
210.375
253.031
305.258
366.787
444.266
535.358
653.046
803.916
1174.05
3144.05
9036.2
17481.9
27971.5
44614.9
8.45241
10.0494
11.3641
13.0249
14.5597
16.2618
18.4044
20.9936
24.1739
28.0301
32.7959
38.7568
46.354
56.1836
68.0749
82.4175
99.6057
120.296
145.026
174.781
210.549
253.175
305.066
366.434
443.131
533.647
649.872
802.664
1220.98
3462.45
9448.61
17214.2
27069
44726.1
8.53374
10.1336
11.4572
13.1262
14.6652
16.3755
18.531
21.1328
24.3297
28.2028
32.9891
38.9739
46.596
56.4375
68.3516
82.725
99.922
120.64
145.339
175.11
210.755
253.345
304.923
366.125
442.113
532.086
647.09
803.746
1288.67
3821.25
9840.99
16851.6
26219.1
44846.5
8.62097
10.2231
11.5563
13.2329
14.7766
16.4977
18.6681
21.2854
24.5021
28.3963
33.2089
39.2254
46.8828
56.7464
68.7024
83.1315
100.371
121.161
145.888
175.747
211.366
254.045
305.457
366.706
442.182
531.986
646.632
814.734
1412.9
4276.45
10295
16568.3
25466.5
44897.3
8.71036
10.3144
11.6565
13.3398
14.8876
16.6198
18.8042
21.4362
24.6712
28.5847
33.4206
39.4646
47.1507
57.0299
69.0154
83.4837
100.742
121.571
146.28
176.165
211.673
254.319
305.42
366.482
441.235
530.449
644.219
820.469
1523.89
4680.19
10579.4
16230.6
24728.6
44918.6
8.80902
10.414
11.7657
13.4548
15.0071
16.7532
18.9536
21.6031
24.8593
28.7959
33.6601
39.7381
47.4606
57.3629
69.3921
83.9167
101.216
122.111
146.84
176.794
212.255
254.943
305.844
366.855
441.074
530.011
644.093
839.125
1697.61
5137.12
10801.7
15923.4
24065.2
44911.5
8.90618
10.5131
11.8742
13.5693
15.1268
16.8883
19.1058
21.7748
25.0543
29.0172
33.9142
40.0324
47.7995
57.7351
69.8249
84.4282
101.801
122.802
147.61
177.702
213.216
256.061
306.917
368.07
441.985
531.109
647.935
880.027
1950.61
5638.6
10978
15668.8
23556.9
44801.3
9.00416
10.613
11.9826
13.6832
15.2456
17.0225
19.2563
21.9439
25.2452
29.2326
34.1595
40.3137
48.1189
58.0816
70.2205
84.8867
102.311
123.389
148.235
178.409
213.903
256.798
307.487
368.579
442.016
530.998
650.341
919.108
2194.4
6065.91
11064.8
15380.2
22982.1
44598.7
9.11876
10.7267
12.1062
13.8101
15.3782
17.1733
19.4247
22.1331
25.4574
29.471
34.4293
40.6206
48.4635
58.4509
70.6364
85.3596
102.827
123.965
148.834
179.057
214.508
257.399
307.904
368.856
441.83
530.674
653.624
967.858
2457.47
6458.5
11069.8
15070
22464.8
44424.7
9.24669
10.8519
12.2419
13.9475
15.5222
17.3375
19.6077
22.3384
25.6867
29.7277
34.7183
40.9468
48.8261
58.8355
71.0643
85.8379
103.34
124.524
149.399
179.644
215.029
257.866
308.148
368.871
441.32
529.932
656.858
1020.98
2717.68
6803.19
11012.4
14737.9
21896.4
44327.3
9.37551
10.9782
12.3779
14.0849
15.6664
17.5021
19.7905
22.5429
25.9142
29.9812
35.0018
41.2643
49.1748
59.2016
71.4643
86.2763
103.797
125.006
149.857
180.086
215.356
258.076
308.061
368.454
440.272
528.46
658.783
1073.52
2961.4
7055.71
10877.4
14378.5
21387.3
44314.8
9.51626
11.1161
12.5274
14.2356
15.8271
17.6882
19.9995
22.7804
26.182
30.2855
35.3497
41.664
49.6285
59.6985
72.0401
86.9459
104.563
125.888
150.851
181.216
216.589
259.441
309.465
369.946
441.743
531.53
678.678
1205.21
3325.99
7339.3
10800.7
14144.6
21119.6
44230.2
9.67373
11.2688
12.6925
14.4005
16.0043
17.8933
20.2296
23.0414
26.4753
30.6181
35.7283
42.0965
50.1156
60.2285
72.6485
87.6437
105.348
126.774
151.82
182.278
217.683
260.571
310.493
370.868
442.421
533.55
696.931
1329.46
3641.22
7540.71
10693.6
13869.6
20752
44035.5
9.82908
11.4228
12.8583
14.5672
16.1848
18.1027
20.4651
23.3093
26.7772
30.9615
36.1205
42.5458
50.6227
60.7844
73.2899
88.3827
106.185
127.721
152.867
183.433
218.9
261.851
311.734
372.073
443.641
537.496
726.323
1490.83
3969.23
7711.41
10590.1
13634.7
20467.9
43842.9
9.98574
11.5828
13.0308
14.7411
16.375
18.324
20.7147
23.594
27.099
31.3289
36.5415
43.0293
51.1702
61.3887
73.9917
89.195
107.114
128.779
154.053
184.754
220.328
263.381
313.291
373.673
445.586
544.173
769.507
1684.89
4296.9
7851.17
10490.3
13425.4
20216.5
43608.7
10.1628
11.7616
13.223
14.9342
16.5881
18.5713
20.9933
23.9114
27.457
31.7367
37.0071
43.5613
51.7688
62.0465
74.7501
90.0635
108.096
129.881
155.269
186.076
221.72
264.814
314.679
375.011
447.302
551.414
817.176
1879.91
4586.41
7944.18
10373.5
13196.1
19900.8
43365.5
10.3483
11.9478
13.4225
15.136
16.8126
18.8319
21.2876
24.2471
27.8361
32.1695
37.5021
44.1273
52.4061
62.7498
75.5632
90.9958
109.154
131.069
156.588
187.514
223.251
266.406
316.275
376.643
449.807
562.415
881.857
2102.35
4872.01
8005.21
10249.9
12987.4
19648.1
43157.8
10.5414
12.1409
13.6294
15.3471
17.0496
19.1074
21.6
24.6044
28.2415
32.6343
38.0359
44.7399
53.0995
63.5224
76.4641
92.0367
110.349
132.424
158.091
189.204
225.103
268.383
318.359
378.966
453.969
580.322
972.073
2359.14
5161.05
8046.41
10136.2
12815.2
19457.5
42914.9
10.7559
12.3532
13.8566
15.58
17.3133
19.4133
21.9472
25.0015
28.6923
33.1517
38.63
45.421
53.8699
64.3824
77.467
93.1933
111.676
133.92
159.776
191.033
227.031
270.507
320.606
381.553
459.261
603.774
1079.24
2624.28
5419.53
8058.71
10018.7
12640.7
19243.5
42632.9
10.983
12.5772
14.0966
15.8286
17.5971
19.7428
22.3225
25.432
29.1831
33.7171
39.2819
46.1711
54.7227
65.3433
78.5962
94.5043
113.193
135.646
161.745
193.209
229.384
273.041
323.355
385.215
467.74
640.498
1222.21
2918.2
5655.67
8068.65
9920.4
12509.7
19097.6
42330.3
11.2215
12.8104
14.347
16.0907
17.8981
20.0921
22.7213
25.8901
29.7068
34.3218
39.9801
46.9753
55.6389
66.3809
79.8181
95.9245
114.839
137.518
163.878
195.562
231.979
275.806
326.401
389.457
479.085
688.291
1385.78
3207.12
5854.2
8065.48
9818.04
12375.7
18925.1
41978.1
11.4757
13.0608
14.6165
16.376
18.2278
20.4746
23.1594
26.3945
30.2859
34.9928
40.7578
47.8742
56.6685
67.5571
81.2132
97.5562
116.744
139.699
166.386
198.355
235.132
279.255
330.417
395.705
497.185
757.902
1587.53
3508.57
6036.2
8065.62
9732.95
12278.3
18804.6
41585.7
11.7469
13.33
14.9074
16.6873
18.589
20.8933
23.6404
26.9495
30.9251
35.7356
41.6212
48.8747
57.82
68.883
82.7949
99.4158
118.927
142.212
169.288
201.606
238.823
283.372
335.564
404.696
524.369
852.371
1821.03
3810.96
6197.61
8065
9657.1
12195.2
18688.8
41130.5
12.0273
13.6113
15.213
17.0186
18.9751
21.3414
24.1572
27.5479
31.618
36.5448
42.5666
49.9766
59.0986
70.3726
84.5895
101.547
121.455
145.153
172.72
205.503
243.316
288.561
342.609
418.724
567.249
984.006
2096.79
4123.09
6352.04
8076.01
9607.39
12155.2
18626
40586.8
12.3234
13.9113
15.5408
17.3782
19.3953
21.8294
24.7221
28.2043
32.3819
37.4411
43.6189
51.2103
60.5426
72.0756
86.6632
104.037
124.444
148.675
176.882
210.306
248.98
295.462
353.108
442.273
636.871
1168.59
2423.77
4445.64
6507
8104.87
9590.1
12162
18616.4
39908.8
12.6334
14.228
15.888
17.7614
19.8423
22.3471
25.3213
28.9004
33.1929
38.3931
44.7381
52.5252
62.0899
73.9163
88.9227
106.778
127.768
152.643
181.635
215.906
255.799
304.412
368.473
479.08
737.433
1397.42
2774.24
4762.11
6681.52
8181.61
9641.87
12257.9
18657.7
39086.1
12.8992
14.5021
16.1903
18.0981
20.2358
22.8035
25.8515
29.5183
33.9162
39.246
45.7459
53.717
63.5052
75.6211
91.0405
109.382
130.975
156.538
186.39
221.67
263.164
315.092
389.288
531.287
870.31
1665.04
3139.45
5074.38
6872.19
8298.08
9762.68
12442
18861.6
38250.5
13.1269
14.7393
16.4533
18.3929
20.5804
23.2038
26.3176
30.0634
34.5565
40.0037
46.6451
54.7863
64.7853
77.1793
92.9963
111.818
134.013
160.291
191.066
227.537
271.133
327.96
416.758
599.696
1029.44
1954.12
3515.23
5436.84
7162.42
8537.01
10087.5
12964
19404.4
36930.4
5.55519
6.23323
7.02095
7.93784
9.03712
10.3686
11.9917
13.992
16.4876
19.6399
23.6769
28.9259
35.8761
45.357
57.2987
72.2838
90.9929
114.27
143.17
178.948
223.379
278.092
347.263
430.331
544.151
669.941
872.678
1050.78
1429.79
1804.1
2641.89
3635.49
4760.02
3288.22
5.72621
6.42046
7.21835
8.14692
9.26205
10.6124
12.257
14.2812
16.8029
19.9826
24.0473
29.3225
36.2941
45.7842
57.722
72.6802
91.3346
114.521
143.277
178.842
222.922
277.205
345.483
427.898
539.188
661.379
859.911
1027.88
1400.86
1747.93
2582.13
3552.63
4870.93
3021.41
5.90674
6.61485
7.42744
8.37193
9.50415
10.8728
12.5366
14.5805
17.1216
20.3194
24.3992
29.6839
36.655
46.1239
58.0167
72.9096
91.4724
114.526
143.087
178.377
222.033
275.784
343.057
424.632
533.217
652.168
847.513
1001.63
1371.84
1678.94
2511.79
3423.22
5015.92
2765.15
6.0678
6.7903
7.6171
8.5757
9.72222
11.1061
12.7859
14.8461
17.4029
20.615
24.7064
29.9975
36.9649
46.4098
58.2666
73.1064
91.5884
114.529
142.936
178.025
221.385
274.78
341.363
422.434
528.999
649.176
841.344
986.989
1351
1638.65
2469.55
3322.17
5102.71
2567.96
6.24335
6.9728
7.80919
8.78001
9.9395
11.3364
13.0291
15.101
17.6674
20.8856
24.9774
30.2596
37.2027
46.5948
58.3756
73.1099
91.4586
114.237
142.439
177.271
220.282
273.257
339.113
419.596
524.177
644.404
831.127
972.819
1328.32
1594.83
2414.87
3199.8
5190.97
2372.84
6.39817
7.13363
7.97897
8.96067
10.1295
11.5343
13.2332
15.3093
17.8762
21.0896
25.1684
30.4253
37.3232
46.6352
58.3121
72.9214
91.1195
113.714
141.695
176.274
218.983
271.631
336.976
417.154
520.411
641.088
823.218
971.23
1321.88
1575.35
2390.25
3122.22
5172.1
2212.02
6.55641
7.29501
8.14553
9.13399
10.3086
11.7175
13.419
15.4944
18.0552
21.255
25.3093
30.5251
37.3559
46.5566
58.0897
72.5157
90.4889
112.823
140.514
174.775
217.125
269.393
334.234
414.112
516.254
637.526
816.047
972.33
1322.92
1572.49
2377.2
3085.31
5175.7
2089.99
6.68584
7.42278
8.27417
9.26552
10.4404
11.8457
13.5387
15.5991
18.1363
21.3004
25.3013
30.4375
37.1485
46.1645
57.4596
71.5924
89.2152
111.13
138.321
171.996
213.666
265.177
329.107
408.178
508.679
630.015
803.373
971.145
1321.19
1554.4
2353.69
3004.64
5269.94
1985.97
6.79528
7.52784
8.37618
9.36457
10.5323
11.9246
13.5985
15.6315
18.1297
21.2378
25.1581
30.1779
36.7195
45.4827
56.4519
70.1722
87.2771
108.558
135.002
167.817
208.495
258.88
321.481
399.17
497.498
617.981
784.822
964.156
1310.4
1519.43
2313.17
2856.05
5398.29
1840.91
6.88086
7.60611
8.44677
9.42677
10.5814
11.9543
13.6011
15.5968
18.0426
21.0772
24.8939
29.7671
36.0996
44.5552
55.1288
68.3535
84.8553
105.421
131.025
162.859
202.397
251.498
312.654
388.867
485.226
604.704
766.872
950.248
1290.66
1510.79
2292.34
2767.9
5404.52
1727.63
6.94074
7.65473
8.48286
9.44915
10.5849
11.9308
13.5408
15.4867
17.8646
20.8058
24.4933
29.1863
35.2644
43.3504
53.4484
66.0731
81.8316
101.483
125.975
156.487
194.502
241.911
301.192
375.411
469.345
587.036
744.442
930.76
1249.66
1499.39
2279.81
2681.39
5448.9
1595.96
6.97288
7.67301
8.48436
9.43125
10.5411
11.8523
13.4161
15.3004
17.5953
20.4239
23.9572
28.4372
34.217
41.8721
51.4145
63.334
78.2134
96.7881
119.986
148.971
185.218
230.62
287.633
359.404
450.558
566.002
719.149
907.005
1209.95
1483.82
2299.43
2643.52
5460.3
1504.55
6.96995
7.65238
8.44214
9.3635
10.4407
11.7084
13.215
15.024
17.2188
19.9131
23.2647
27.4956
32.9286
40.0864
48.9849
60.0815
73.9246
91.209
112.821
139.889
173.855
216.576
270.48
338.752
425.896
537.376
684.803
871.511
1158.79
1454.22
2273.41
2590.82
5514.33
1372.54
6.92905
7.59268
8.3579
9.24851
10.2861
11.5023
12.9417
14.6628
16.7423
19.2837
22.4301
26.3818
31.4291
38.0376
46.2256
56.4112
69.1002
84.9383
104.758
129.632
160.946
200.509
250.717
314.771
397.161
503.853
645.596
830.093
1104.14
1416.84
2178.31
2559.29
5584.41
1262.67
6.8696
7.51032
8.2464
9.10087
10.0935
11.2526
12.619
14.246
16.2027
18.5821
21.512
25.1704
29.8139
35.8496
43.297
52.5305
64.0077
78.3158
96.2182
118.709
147.092
183.094
229.048
288.135
364.821
465.309
599.499
778.043
1037.21
1361.73
2050.26
2529.47
5625.47
1157.58
6.75807
7.3746
8.07941
8.8943
9.83728
10.9337
12.22
13.7438
15.5667
17.7709
20.468
23.8127
28.0264
33.4565
40.1215
48.3474
58.5364
71.2065
87.0371
106.923
132.054
164.031
205.037
258.107
327.543
419.508
543.486
712.302
956.053
1284.32
1906.58
2488.63
5537.6
1020.56
6.64294
7.23248
7.90312
8.67486
9.56427
10.5939
11.7959
13.2122
14.8968
16.9209
19.381
22.4095
26.1939
31.0256
36.9223
44.1624
53.0917
64.158
77.9522
95.2613
117.146
145.055
181.001
227.836
289.672
372.572
485.791
643.235
870.597
1194.54
1763.28
2442.43
5248.72
893.213
6.4806
7.04426
7.68159
8.41135
9.24836
10.2126
11.3321
12.6434
14.1933
16.0431
18.2752
21.0013
24.3784
28.6467
33.8252
40.1486
47.9108
57.4938
69.4044
84.3229
103.175
127.242
158.327
199.028
253.163
326.494
427.895
571.496
781.463
1094.76
1615.63
2377.27
4730.58
770.763
6.37725
6.90959
7.50898
8.1913
8.97056
9.86443
10.8972
12.1004
13.5141
15.1905
17.1987
19.6318
22.6186
26.3531
30.8572
36.3254
43.0037
51.2123
61.3775
74.0742
90.0865
110.512
136.919
171.602
218.001
281.426
369.666
496.239
684.478
977.409
1459.47
2280.83
4186.79
631.874
6.11984
6.62312
7.18779
7.82781
8.55581
9.38718
10.3426
11.4486
12.7389
14.2572
16.0606
18.2249
20.8533
24.0983
27.9854
32.674
38.3675
45.3327
53.9264
64.6254
77.9825
94.8542
116.465
144.61
182.004
232.897
304.71
409.445
568.044
819.948
1244.43
2029.6
3723.12
528.327
5.95702
6.43409
6.96486
7.56058
8.23274
8.99468
9.86332
10.8597
12.0111
13.3533
14.9319
16.8054
19.0529
21.7891
25.0335
28.9039
33.5492
39.162
45.9966
54.404
64.9616
78.404
95.7896
118.687
149.496
192.007
252.516
341.942
480.2
706.392
1102.74
1869.58
3495.5
446.372
6.02349
6.49247
7.01545
7.60258
8.2644
9.01432
9.86966
10.8493
11.9746
13.2788
14.8034
16.6013
18.7425
21.3251
24.3875
28.0448
32.4453
37.7822
44.3123
52.3836
62.481
75.2849
91.7755
113.41
142.423
182.374
239.184
323.318
454.159
672.009
1061.58
1868.52
3602.02
353.768
5.53697
5.94342
6.39196
6.89122
7.45104
8.06795
8.74157
9.50778
10.4252
11.4917
12.7274
14.168
15.8623
17.8772
20.2567
23.0898
26.4908
30.6108
35.6539
41.8987
49.7397
59.7411
72.7263
89.9378
113.309
145.963
193.179
264.387
377.6
570.496
928.974
1694.11
3514.56
310.603
5.62043
6.01489
6.4322
6.87654
7.35395
7.86626
8.41448
9.0153
9.70567
10.5104
11.4571
12.58
13.9229
15.5469
17.5154
19.9156
22.8667
26.5294
31.1216
36.9424
44.2864
53.5838
65.557
81.3052
102.548
132.087
174.701
239.027
341.875
518.41
856.364
1574.4
3658.33
277.858
0.254686
0.254626
0.254566
0.254507
0.254448
0.254391
0.254334
0.254277
0.254222
0.254167
0.254113
0.25406
0.254008
0.253957
0.253907
0.253858
0.253811
0.253767
0.253726
0.25369
0.253662
0.253647
0.253659
0.253722
0.253865
0.254141
0.254649
0.255561
0.257117
0.259684
0.263881
0.270714
0.281767
0.299482
0.327505
0.371043
0.437196
0.535007
0.675166
0.869025
1.12724
1.45751
1.86216
2.33209
2.84479
3.38512
3.92659
4.50112
5.03324
0.254687
0.254627
0.254568
0.254509
0.254451
0.254393
0.254336
0.25428
0.254225
0.25417
0.254116
0.254063
0.254011
0.25396
0.25391
0.253861
0.253814
0.25377
0.253729
0.253692
0.253664
0.253649
0.253661
0.253723
0.253865
0.254141
0.254649
0.255561
0.25712
0.259692
0.263902
0.270758
0.281854
0.299643
0.327798
0.371582
0.4382
0.536888
0.678716
0.875636
1.13908
1.4778
1.89486
2.38133
2.91396
3.47796
4.04279
4.63839
5.18271
0.254688
0.254628
0.254569
0.25451
0.254453
0.254396
0.254339
0.254283
0.254228
0.254173
0.25412
0.254067
0.254015
0.253963
0.253913
0.253865
0.253818
0.253773
0.253732
0.253695
0.253667
0.253652
0.253663
0.253725
0.253867
0.254142
0.254652
0.255568
0.257137
0.25973
0.263982
0.270918
0.282163
0.300221
0.328851
0.373448
0.441422
0.542313
0.687575
0.889641
1.16047
1.50931
1.93949
2.44138
2.99135
3.57434
4.16071
4.7771
5.34798
0.254688
0.254629
0.25457
0.254512
0.254455
0.254398
0.254342
0.254287
0.254232
0.254177
0.254124
0.254071
0.254019
0.253968
0.253918
0.253869
0.253822
0.253777
0.253736
0.253699
0.25367
0.253655
0.253665
0.253726
0.253868
0.254144
0.254654
0.255575
0.257154
0.259766
0.264054
0.271055
0.282409
0.300647
0.329563
0.374614
0.4433
0.545311
0.69234
0.897206
1.17237
1.52779
1.96739
2.48165
3.04717
3.64865
4.25621
4.89505
5.49164
0.254689
0.254631
0.254573
0.254515
0.254458
0.254402
0.254346
0.254291
0.254236
0.254182
0.254128
0.254076
0.254024
0.253973
0.253923
0.253874
0.253827
0.253782
0.25374
0.253703
0.253674
0.253658
0.253668
0.253728
0.253869
0.254145
0.254658
0.255585
0.257176
0.259814
0.264151
0.271242
0.282754
0.301262
0.33063
0.376419
0.446285
0.550153
0.70004
0.909202
1.19064
1.55493
2.00644
2.53536
3.11854
3.73979
4.36988
5.03185
5.65649
0.25469
0.254632
0.254574
0.254517
0.254461
0.254405
0.25435
0.254295
0.25424
0.254186
0.254133
0.25408
0.254029
0.253978
0.253927
0.253879
0.253831
0.253786
0.253745
0.253707
0.253678
0.253662
0.253671
0.253731
0.253872
0.254148
0.254664
0.255599
0.257206
0.259877
0.264275
0.271472
0.283168
0.30198
0.331833
0.378379
0.449398
0.554987
0.707396
0.92021
1.20685
1.57839
2.03974
2.58115
3.17933
3.81747
4.4683
5.15083
5.80079
0.25469
0.254633
0.254576
0.25452
0.254464
0.254409
0.254353
0.254299
0.254245
0.254191
0.254138
0.254085
0.254034
0.253983
0.253932
0.253884
0.253836
0.253791
0.253749
0.253712
0.253682
0.253665
0.253674
0.253733
0.253873
0.254151
0.254669
0.255611
0.257234
0.259936
0.264391
0.271691
0.283565
0.302674
0.333009
0.380316
0.452507
0.559868
0.714899
0.931528
1.2236
1.60272
2.07433
2.62893
3.24251
3.89896
4.57123
5.27415
5.95019
0.254691
0.254634
0.254578
0.254522
0.254466
0.254411
0.254356
0.254302
0.254248
0.254195
0.254142
0.25409
0.254038
0.253987
0.253937
0.253888
0.253841
0.253795
0.253753
0.253715
0.253685
0.253668
0.253676
0.253735
0.253876
0.254154
0.254675
0.255625
0.257265
0.259999
0.264513
0.271919
0.283971
0.303373
0.334171
0.38219
0.455444
0.564355
0.721601
0.941346
1.23775
1.62279
2.10237
2.66735
3.29375
3.96462
4.65477
5.3736
6.07322
0.254692
0.254635
0.25458
0.254524
0.254469
0.254414
0.25436
0.254306
0.254252
0.254199
0.254146
0.254094
0.254042
0.253991
0.253941
0.253892
0.253845
0.2538
0.253757
0.253719
0.253689
0.253671
0.253679
0.253737
0.253877
0.254156
0.254681
0.255638
0.257294
0.260058
0.264628
0.272133
0.284352
0.304027
0.335252
0.38392
0.458126
0.568401
0.727554
0.949926
1.24991
1.63982
2.12601
2.69937
3.33642
4.01954
4.72545
5.45813
6.17846
0.254692
0.254636
0.254581
0.254526
0.254471
0.254417
0.254362
0.254309
0.254255
0.254202
0.25415
0.254097
0.254046
0.253995
0.253945
0.253896
0.253849
0.253803
0.253761
0.253723
0.253692
0.253674
0.253682
0.253739
0.253879
0.254159
0.254687
0.255652
0.257325
0.260121
0.264749
0.272355
0.284743
0.304688
0.336331
0.38562
0.460715
0.57222
0.733028