/*--------------------------------*- C++ -*----------------------------------*\
| =========                 |                                                 |
| \\      /  F ield         | OpenFOAM: The Open Source CFD Toolbox           |
|  \\    /   O peration     | Version:  2.3.0                                 |
|   \\  /    A nd           | Web:      www.OpenFOAM.org                      |
|    \\/     M anipulation  |                                                 |
\*---------------------------------------------------------------------------*/
FoamFile
{
    version     2.0;
    format      ascii;
    class       surfaceScalarField;
    location    "300";
    object      phi;
}
// * * * * * * * * * * * * * * * * * * * * * * * * * * * * * * * * * * * * * //

dimensions      [0 3 -1 0 0 0 0];

internalField   nonuniform List<scalar> 
56756
(
0.389868
0.767721
-0.748057
-0.409531
0.370231
0.766969
-0.747332
0.350598
0.76613
-0.746497
0.330945
0.765292
-0.745639
0.31127
0.76444
-0.744766
0.291577
0.763594
-0.743901
0.271862
0.762783
-0.743069
0.25213
0.762026
-0.742294
0.232389
0.761351
-0.74161
0.212652
0.7608
-0.741062
0.192938
0.760426
-0.740712
0.173277
0.760306
-0.740645
0.153712
0.76054
-0.740975
0.134111
0.768796
-0.749195
0.116508
0.700133
-0.68253
0.100763
0.638109
-0.622363
0.0867416
0.58204
-0.568019
0.074317
0.531302
-0.518877
0.0633624
0.485321
-0.474367
0.0537517
0.443595
-0.433985
0.0453621
0.405644
-0.397254
0.0380715
0.371111
-0.36382
0.0317609
0.339531
-0.33322
0.0263237
0.310825
-0.305388
0.021625
0.284287
-0.279588
0.0176291
0.260382
-0.256386
0.0141349
0.23791
-0.234416
0.0112916
0.218014
-0.215171
0.00865099
0.198972
-0.196331
0.00668932
0.182105
-0.180143
0.00453021
0.16622
-0.164061
0.0032178
0.151655
-0.150343
0.000988501
0.140957
-0.138728
0.110957
-0.109969
0.345469
0.784888
-0.362637
0.328252
0.784187
0.311018
0.783364
0.293762
0.782548
0.276479
0.781723
0.25917
0.780903
0.241837
0.780116
0.224483
0.77938
0.207117
0.778717
0.189751
0.778166
0.172403
0.777774
0.1551
0.777609
0.137879
0.777761
0.120627
0.786048
0.105132
0.715628
0.091272
0.651969
0.0789307
0.594381
0.0679949
0.542237
0.0583531
0.494963
0.0498941
0.452054
0.0425084
0.413029
0.0360883
0.377531
0.0305224
0.345097
0.0257283
0.315619
0.0215658
0.288449
0.0180203
0.263928
0.0148963
0.241034
0.0123034
0.220607
0.00985078
0.201425
0.00793953
0.184016
0.00575384
0.168406
0.00434583
0.153063
0.00193691
0.143366
0.112894
0.309185
0.800178
-0.324475
0.293844
0.799528
0.278465
0.798743
0.263052
0.797961
0.247603
0.797171
0.232122
0.796385
0.216611
0.795626
0.201077
0.794914
0.185526
0.794269
0.169968
0.793724
0.154421
0.793322
0.138907
0.793123
0.12346
0.793208
0.107979
0.801529
0.0940682
0.729539
0.0816196
0.664418
0.070529
0.605472
0.0606943
0.552072
0.0520148
0.503643
0.0443908
0.459678
0.0377229
0.419697
0.0319178
0.383336
0.026868
0.350147
0.0225121
0.319975
0.0187041
0.292257
0.0154514
0.267181
0.0125513
0.243935
0.0101221
0.223036
0.00780758
0.203739
0.00598945
0.185834
0.00394165
0.170454
0.00275806
0.154247
0.000980368
0.145144
0.113874
0.274676
0.813811
-0.288309
0.261011
0.813192
0.247297
0.812457
0.233545
0.811713
0.219758
0.810958
0.205933
0.810209
0.192074
0.809485
0.178187
0.808801
0.164276
0.808179
0.150352
0.807648
0.136428
0.807246
0.122525
0.807026
0.108673
0.80706
0.0947779
0.815424
0.0822788
0.742038
0.0710806
0.675616
0.0610911
0.615461
0.0522202
0.560943
0.0443788
0.511484
0.0374792
0.466578
0.0314318
0.425745
0.0261573
0.38861
0.0215574
0.354746
0.0175879
0.323945
0.0141203
0.295725
0.0111774
0.270124
0.0085771
0.246535
0.00647359
0.22514
0.00450882
0.205704
0.0031464
0.187196
0.00160968
0.17199
0.000890984
0.154965
-0.000102385
0.146137
0.113772
0.259144
0.82643
-0.271763
0.246505
0.825831
0.233788
0.825175
0.221025
0.824476
0.208227
0.823756
0.195387
0.823049
0.182508
0.822365
0.169593
0.821716
0.156648
0.821124
0.14368
0.820615
0.130702
0.820224
0.117732
0.819996
0.104796
0.819996
0.0918033
0.828416
0.0800992
0.753742
0.0695961
0.686119
0.0602085
0.624849
0.0518529
0.569298
0.0444466
0.51889
0.0379108
0.473113
0.0321619
0.431494
0.0271352
0.393637
0.0227351
0.359147
0.0189337
0.327746
0.0156015
0.299057
0.0127735
0.272951
0.0102566
0.249052
0.00821733
0.227179
0.00625578
0.207665
0.00483461
0.188618
0.00323456
0.17359
0.0023073
0.155893
0.000920282
0.147524
0.114692
0.230809
0.837574
-0.241952
0.219674
0.836966
0.20846
0.836389
0.197187
0.835749
0.185873
0.835071
0.174512
0.834409
0.163104
0.833773
0.151651
0.833169
0.140158
0.832617
0.128631
0.832143
0.117079
0.831776
0.105517
0.831558
0.0939671
0.831546
0.0823457
0.840038
0.0718565
0.764232
0.0624246
0.695551
0.0539769
0.633297
0.0464423
0.576833
0.039749
0.525584
0.0338297
0.479033
0.0286076
0.436716
0.0240292
0.398216
0.0200048
0.363171
0.0165127
0.331238
0.0134371
0.302133
0.0108116
0.275577
0.00846604
0.251397
0.00657513
0.22907
0.00474538
0.209495
0.0034671
0.189896
0.00202624
0.175031
0.0012787
0.15664
0.000280696
0.148522
0.114973
0.212988
0.847626
-0.22304
0.202922
0.847032
0.192773
0.846538
0.182553
0.845968
0.172282
0.845342
0.161956
0.844735
0.151575
0.844155
0.14114
0.843604
0.130653
0.843104
0.120121
0.842675
0.10955
0.842347
0.0989532
0.842154
0.0883487
0.842151
0.0776589
0.850728
0.0679914
0.773899
0.0592808
0.704262
0.0514619
0.641115
0.0444714
0.583824
0.0382442
0.531811
0.0327226
0.484554
0.0278353
0.441603
0.0235409
0.40251
0.0197533
0.366959
0.0164646
0.334527
0.0135542
0.305043
0.0110783
0.278053
0.00883793
0.253638
0.00704199
0.230866
0.00526798
0.211269
0.00401236
0.191152
0.00259842
0.176445
0.0017557
0.157483
0.000654974
0.149623
0.115628
0.193645
0.856497
-0.202516
0.184812
0.855865
0.175878
0.855472
0.166848
0.854998
0.157754
0.854436
0.148597
0.853893
0.139374
0.853378
0.130087
0.852892
0.120735
0.852455
0.111323
0.852087
0.101856
0.851814
0.0923431
0.851667
0.0827991
0.851695
0.0731511
0.860376
0.0643996
0.782651
0.0564906
0.712171
0.0493707
0.648235
0.0429877
0.590207
0.0372857
0.537513
0.0322167
0.489623
0.0277148
0.446105
0.0237458
0.406479
0.0202281
0.370476
0.0171527
0.337602
0.0144118
0.307784
0.012047
0.280418
0.00989215
0.255792
0.00812108
0.232637
0.00634717
0.213043
0.00500619
0.192493
0.00348222
0.177969
0.00243412
0.158531
0.00109477
0.150963
0.116723
0.17593
0.864427
-0.18386
0.168031
0.863764
0.160031
0.863472
0.151936
0.863093
0.143768
0.862604
0.135526
0.862134
0.127207
0.861696
0.11881
0.861289
0.110334
0.860932
0.101779
0.860642
0.0931499
0.860443
0.0844527
0.860364
0.075699
0.860449
0.0668192
0.869255
0.0587356
0.790734
0.0514039
0.719502
0.0447786
0.654861
0.038816
0.596169
0.0334673
0.542861
0.0286946
0.494396
0.0244398
0.45036
0.0206811
0.410237
0.0173428
0.373815
0.0144328
0.340512
0.011838
0.310379
0.0096295
0.282626
0.00760064
0.257821
0.00597854
0.234259
0.0043712
0.21465
0.00320502
0.193659
0.00194565
0.179229
0.00112203
0.159355
0.000278206
0.151806
0.117001
0.166286
0.871692
-0.173551
0.15902
0.87103
0.151641
0.870851
0.144172
0.870562
0.136618
0.870158
0.128978
0.869775
0.12125
0.869423
0.113432
0.869108
0.10552
0.868844
0.0975135
0.868648
0.0894136
0.868543
0.0812236
0.868554
0.072951
0.868721
0.0645257
0.877681
0.0568223
0.798438
0.0498043
0.72652
0.0434343
0.661231
0.0376772
0.601926
0.0324913
0.548047
0.0278462
0.499041
0.0236887
0.454517
0.0200026
0.413924
0.0167175
0.3771
0.0138416
0.343388
0.0112761
0.312945
0.00908579
0.284816
0.00710246
0.259805
0.00550936
0.235852
0.00397517
0.216185
0.00285799
0.194776
0.00170727
0.180379
0.000938396
0.160124
0.000176015
0.152569
0.117177
0.143057
0.877706
-0.149071
0.137062
0.877025
0.130951
0.876962
0.124737
0.876775
0.118422
0.876473
0.112007
0.87619
0.105492
0.875939
0.0988698
0.875729
0.0921376
0.875576
0.0852931
0.875493
0.0783353
0.875501
0.0712661
0.875624
0.0640909
0.875896
0.0567472
0.885024
0.0500007
0.805184
0.0438261
0.732695
0.0381949
0.666862
0.0330807
0.60704
0.0284482
0.55268
0.024277
0.503212
0.0205226
0.458272
0.01718
0.417266
0.0141905
0.380089
0.011578
0.346
0.00924555
0.315277
0.007282
0.28678
0.00548198
0.261605
0.00410163
0.237233
0.00275687
0.217529
0.00187937
0.195653
0.000968018
0.181291
0.000550478
0.160541
9.27795e-05
0.153026
0.11727
0.144402
0.883076
-0.149773
0.139015
0.882413
0.133501
0.882475
0.127876
0.8824
0.122135
0.882214
0.11628
0.882045
0.110313
0.881906
0.104226
0.881816
0.0980139
0.881788
0.0916735
0.881833
0.085202
0.881972
0.0785986
0.882227
0.0718652
0.88263
0.0649396
0.89195
0.0585431
0.811581
0.0526585
0.738579
0.047264
0.672257
0.0423397
0.611965
0.0378538
0.557166
0.0337875
0.507279
0.0300937
0.461966
0.0267595
0.4206
0.0237191
0.38313
0.0209724
0.348747
0.0184361
0.317813
0.016151
0.289065
0.0139662
0.26379
0.0119937
0.239205
0.0100047
0.219518
0.00813131
0.197527
0.00620909
0.183213
0.00428925
0.162461
0.00221528
0.1551
0.119485
0.128458
0.88779
-0.133172
0.123721
0.887149
0.118851
0.887346
0.113862
0.887389
0.108738
0.887339
0.103484
0.887299
0.0981007
0.887289
0.0925807
0.887336
0.0869174
0.887451
0.081106
0.887645
0.0751426
0.887935
0.0690254
0.888344
0.0627553
0.8889
0.0562725
0.898433
0.0502551
0.817598
0.0446916
0.744143
0.0395635
0.677385
0.0348534
0.616675
0.03053
0.561489
0.0265772
0.511232
0.0229525
0.46559
0.0196506
0.423902
0.0166224
0.386158
0.0138836
0.351486
0.0113583
0.320339
0.00911184
0.291311
0.00700685
0.265894
0.00521991
0.240992
0.00352771
0.221211
0.00218195
0.198873
0.000929003
0.184466
2.84731e-05
0.163362
-0.000523963
0.155653
0.118961
0.116156
0.89196
-0.120325
0.111939
0.891366
0.107577
0.891708
0.103087
0.891879
0.0984479
0.891978
0.0936646
0.892082
0.088738
0.892216
0.083659
0.892415
0.0784208
0.89269
0.0730168
0.893049
0.0674416
0.893511
0.0616908
0.894095
0.055762
0.894829
0.049595
0.9046
0.0438368
0.823356
0.0384871
0.749493
0.0335408
0.682331
0.0289964
0.621219
0.0248401
0.565646
0.021074
0.514998
0.017673
0.468991
0.0146427
0.426933
0.0119342
0.388866
0.00956926
0.353851
0.00746775
0.32244
0.00569796
0.293081
0.00411263
0.26748
0.00286468
0.24224
0.00172313
0.222352
0.000892207
0.199703
0.000104142
0.185254
-0.000501038
0.163967
-0.000776633
0.155928
0.118184
0.111421
0.895294
-0.114755
0.108001
0.894785
0.104448
0.895261
0.100753
0.895574
0.0968951
0.895836
0.0928803
0.896097
0.0887086
0.896388
0.0843718
0.896752
0.0798624
0.897199
0.0751741
0.897737
0.0703018
0.898383
0.0652422
0.899155
0.0599949
0.900076
0.0545083
0.910086
0.0493631
0.828502
0.0445645
0.754291
0.0401077
0.686788
0.0359886
0.625338
0.0321838
0.56945
0.0286834
0.518498
0.0254513
0.472223
0.0224824
0.429901
0.0197421
0.391607
0.0172344
0.356359
0.0149166
0.324758
0.0128039
0.295194
0.0107927
0.269491
0.00894242
0.24409
0.00715823
0.224136
0.00544444
0.201417
0.00383068
0.186868
0.00218529
0.165612
0.000727043
0.157387
0.118912
0.104923
0.898254
-0.107883
0.101842
0.897866
0.0986186
0.898485
0.0952503
0.898943
0.091706
0.89938
0.0879938
0.899809
0.0841128
0.900269
0.0800545
0.90081
0.0758114
0.901442
0.0713761
0.902172
0.0667422
0.903017
0.061904
0.903993
0.0568568
0.905123
0.0515438
0.915399
0.0465215
0.833524
0.0417968
0.759016
0.0373671
0.691217
0.0332324
0.629473
0.0293815
0.573301
0.025816
0.522064
0.0225133
0.475526
0.0194642
0.432951
0.0166336
0.394437
0.0140217
0.358971
0.0115809
0.327199
0.00935719
0.297418
0.00726613
0.271582
0.00540202
0.245954
0.00367715
0.225861
0.00214726
0.202947
0.000800271
0.188215
-0.000402929
0.166815
-0.000883749
0.157867
0.118028
0.0913635
0.90083
-0.09394
0.0886488
0.900581
0.0857903
0.901343
0.0827755
0.901957
0.0795729
0.902583
0.0761904
0.903191
0.0726259
0.903833
0.0688715
0.904565
0.0649198
0.905394
0.0607641
0.906328
0.0563993
0.907382
0.0518229
0.908569
0.0470355
0.909911
0.0419921
0.920443
0.0372358
0.83828
0.0327845
0.763467
0.0286461
0.695356
0.0248273
0.633292
0.0213154
0.576813
0.0181079
0.525271
0.0151866
0.478447
0.0125492
0.435588
0.0101698
0.396817
0.00805325
0.361087
0.00616636
0.329086
0.00453279
0.299051
0.00307477
0.27304
0.00183645
0.247193
0.000747224
0.22695
-0.000197457
0.203892
-0.000992521
0.18901
-0.00180101
0.167624
-0.00163435
0.157701
0.116393
0.0895901
0.90292
-0.0916798
0.087321
0.90285
0.0849227
0.903741
0.0823602
0.90452
0.0796063
0.905337
0.076668
0.90613
0.0735431
0.906958
0.070225
0.907883
0.0667077
0.908911
0.0629849
0.910051
0.0590528
0.911314
0.0549083
0.912714
0.0505512
0.914268
0.0459366
0.925057
0.0415564
0.84266
0.0374265
0.767597
0.0335507
0.699232
0.0299327
0.63691
0.0265669
0.580179
0.023448
0.52839
0.0205652
0.48133
0.0179115
0.438242
0.015467
0.399261
0.0132041
0.36335
0.0110934
0.331196
0.00912597
0.301019
0.00726455
0.274902
0.00550169
0.248956
0.00386516
0.228587
0.00223805
0.205519
0.000841892
0.190406
-0.000683205
0.169149
-0.000980114
0.157998
0.115413
0.0820496
0.905347
-0.0844764
0.0794383
0.905461
0.0767027
0.906477
0.0738074
0.907415
0.0707255
0.908418
0.0674648
0.90939
0.0640232
0.9104
0.0603962
0.91151
0.0565785
0.912729
0.0525654
0.914064
0.048354
0.915525
0.0439442
0.917123
0.0393384
0.918874
0.0344962
0.9299
0.0299401
0.847216
0.0256876
0.77185
0.0217491
0.70317
0.0181299
0.640529
0.0148255
0.583484
0.0118322
0.531383
0.00913804
0.484024
0.00672116
0.440658
0.00457853
0.401404
0.00270591
0.365223
0.001099
0.332803
-0.000249257
0.302367
-0.00134745
0.276
-0.00224218
0.24985
-0.00284108
0.229186
-0.00337428
0.206052
-0.00353746
0.190569
-0.0037952
0.169407
-0.00272575
0.156928
0.112688
0.0741991
0.906997
-0.0758494
0.0723867
0.907274
0.0704811
0.908383
0.0684413
0.909455
0.0662463
0.910613
0.0639037
0.911733
0.0614141
0.912889
0.0587767
0.914147
0.0559899
0.915516
0.0530522
0.917001
0.0499645
0.918613
0.0467289
0.920359
0.0433503
0.922252
0.0397989
0.933451
0.0364538
0.850562
0.0333221
0.774981
0.0303985
0.706094
0.0276778
0.64325
0.0251466
0.586015
0.0227874
0.533742
0.02059
0.486222
0.0185373
0.442711
0.016611
0.40333
0.0147638
0.36707
0.0129834
0.334584
0.0112205
0.30413
0.00950282
0.277717
0.00772103
0.251632
0.00596001
0.230947
0.00409326
0.207919
0.00238111
0.192281
0.000438796
0.171349
-0.000165453
0.157533
0.112522
0.0672505
0.909392
-0.0696461
0.0647087
0.909816
0.0620902
0.911001
0.0593577
0.912188
0.05649
0.913481
0.0534971
0.914726
0.0503789
0.916007
0.0471371
0.917389
0.0437708
0.918882
0.0402796
0.920493
0.0366643
0.922228
0.0329275
0.924096
0.0290719
0.926108
0.0250633
0.93746
0.0213245
0.8543
0.0178546
0.778451
0.0146506
0.709298
0.0117056
0.646195
0.00901366
0.588707
0.00656997
0.536186
0.00436427
0.488427
0.00238462
0.444691
0.000637347
0.405077
-0.000876657
0.368584
-0.00215592
0.335863
-0.00321311
0.305187
-0.00401972
0.278524
-0.00466818
0.252281
-0.00504268
0.231321
-0.00533981
0.208216
-0.00524799
0.192189
-0.00512891
0.17123
-0.00336234
0.155766
0.10916
0.0596703
0.911417
-0.0616946
0.0575186
0.911967
0.0553097
0.91321
0.0530072
0.91449
0.0505944
0.915894
0.0480799
0.91724
0.0454656
0.918622
0.042755
0.9201
0.0399497
0.921687
0.0370515
0.923391
0.0340648
0.925215
0.0309954
0.927165
0.0278526
0.92925
0.0246159
0.940696
0.021633
0.857283
0.0189036
0.781181
0.0164185
0.711783
0.0141712
0.648442
0.0121426
0.590735
0.0103145
0.538014
0.00867189
0.49007
0.00720245
0.44616
0.00588649
0.406393
0.00470643
0.369764
0.00363953
0.33693
0.00266652
0.30616
0.00178229
0.279408
0.000935214
0.253128
0.000246553
0.23201
-0.000561764
0.209024
-0.00123873
0.192866
-0.00199927
0.17199
-0.00149526
0.155262
0.107664
0.0533735
0.91314
-0.0550967
0.0515396
0.913801
0.0496665
0.915083
0.0477185
0.916438
0.0456792
0.917933
0.0435599
0.91936
0.0413611
0.92082
0.039089
0.922372
0.0367456
0.924031
0.034334
0.925802
0.0318585
0.92769
0.0293253
0.929699
0.0267403
0.931836
0.024085
0.943351
0.0216368
0.859731
0.0193864
0.783431
0.0173201
0.713849
0.0154213
0.650341
0.0136782
0.592478
0.0120741
0.539618
0.0105841
0.49156
0.00918525
0.447559
0.00785799
0.407721
0.00658867
0.371033
0.0053672
0.338151
0.00417698
0.30735
0.00303082
0.280554
0.00190058
0.254258
0.000888998
0.233022
-0.000181365
0.210095
-0.00107154
0.193757
-0.00195706
0.172876
-0.0014173
0.154722
0.106247
0.0527823
0.915654
-0.0552965
0.0501623
0.916421
0.0475274
0.917718
0.0448251
0.91914
0.0420497
0.920709
0.0392076
0.922202
0.0363014
0.923727
0.0333374
0.925336
0.0303179
0.92705
0.0272458
0.928874
0.0241259
0.93081
0.0209628
0.932862
0.0177633
0.935035
0.0145022
0.946612
0.0115211
0.862713
0.00880783
0.786144
0.00634939
0.716307
0.00413685
0.652553
0.00215487
0.59446
0.000399398
0.541374
-0.00113363
0.493093
-0.00244816
0.448874
-0.00354772
0.40882
-0.00444058
0.371926
-0.00512517
0.338836
-0.00563788
0.307863
-0.00593951
0.280856
-0.00613363
0.254452
-0.00607655
0.232965
-0.00600351
0.210022
-0.00561301
0.193366
-0.00517749
0.17244
-0.00324436
0.152789
0.103003
0.0510663
0.917688
-0.0531001
0.0489338
0.918554
0.046796
0.919856
0.0446068
0.921329
0.0423614
0.922954
0.0400663
0.924497
0.0377244
0.926069
0.0353432
0.927717
0.0329255
0.929468
0.0304756
0.931324
0.0279987
0.933287
0.0255021
0.935358
0.0229934
0.937544
0.0204596
0.949146
0.0181656
0.865007
0.0160986
0.788211
0.0142417
0.718164
0.012576
0.654219
0.0110812
0.595955
0.00973239
0.542722
0.00851101
0.494314
0.00739637
0.449988
0.00637356
0.409843
0.00541896
0.372881
0.0045255
0.339729
0.00366419
0.308724
0.00282998
0.28169
0.00198329
0.255299
0.00115614
0.233792
0.000274177
0.210904
-0.000550118
0.19419
-0.00135565
0.173246
-0.000931817
0.152365
0.102071
0.0406377
0.919424
-0.0423734
0.038829
0.920362
0.037022
0.921663
0.0351797
0.923172
0.033295
0.924839
0.0313768
0.926415
0.0294269
0.928019
0.0274536
0.92969
0.0254605
0.931461
0.0234524
0.933332
0.021435
0.935305
0.0194138
0.937379
0.0173955
0.939562
0.0153639
0.951178
0.0135259
0.866845
0.0118609
0.789876
0.0103471
0.719678
0.00896691
0.655599
0.00770183
0.59722
0.00653929
0.543885
0.0054587
0.495395
0.00444485
0.451002
0.00348229
0.410805
0.00256462
0.373798
0.00169082
0.340603
0.00084659
0.309569
7.30436e-05
0.282464
-0.000690202
0.256062
-0.00134257
0.234444
-0.00201756
0.211579
-0.00247508
0.194648
-0.00276084
0.173532
-0.0016436
0.151248
0.100427
0.0376414
0.92149
-0.0397075
0.0355066
0.922497
0.0333806
0.923789
0.0312284
0.925324
0.0290454
0.927022
0.0268391
0.928621
0.0246114
0.930246
0.0223703
0.931931
0.0201188
0.933712
0.0178614
0.93559
0.0156028
0.937563
0.0133489
0.939633
0.0111048
0.941806
0.00885716
0.953426
0.00683682
0.868865
0.0050291
0.791684
0.00341916
0.721288
0.00199236
0.657026
0.000736987
0.598476
-0.000360052
0.544982
-0.00130349
0.496338
-0.00210395
0.451803
-0.00276193
0.411463
-0.0032981
0.374334
-0.00371012
0.341015
-0.00402863
0.309887
-0.00420567
0.282641
-0.00436075
0.256217
-0.00437058
0.234454
-0.00443045
0.211639
-0.00427276
0.19449
-0.00397724
0.173236
-0.0022867
0.149557
0.0981407
0.0321523
0.923173
-0.0338355
0.0304117
0.924238
0.0286856
0.925515
0.026945
0.927064
0.025185
0.928782
0.0234145
0.930392
0.0216349
0.932026
0.0198547
0.933712
0.018078
0.935489
0.0163102
0.937358
0.0145586
0.939315
0.0128307
0.941361
0.0111371
0.9435
0.00947208
0.955091
0.00801171
0.870325
0.00673738
0.792958
0.00563067
0.722395
0.00467413
0.657983
0.00384477
0.599305
0.00312594
0.545701
0.00249442
0.49697
0.00193446
0.452362
0.00142501
0.411973
0.00095476
0.374805
0.000514575
0.341455
7.58419e-05
0.310326
-0.00034439
0.283061
-0.000796417
0.256669
-0.0012082
0.234866
-0.0017258
0.212156
-0.00207686
0.194841
-0.00227178
0.173431
-0.00119937
0.148485
0.0969413
0.0270963
0.925069
-0.0289922
0.0251536
0.92618
0.023231
0.927438
0.0213012
0.928994
0.0193607
0.930722
0.0174186
0.932334
0.0154752
0.933969
0.0135398
0.935647
0.0116153
0.937414
0.00970749
0.939265
0.00782209
0.9412
0.00596598
0.943217
0.00414563
0.94532
0.00235261
0.956884
0.000768493
0.871909
-0.000625802
0.794353
-0.00184931
0.723618
-0.0029195
0.659053
-0.00384699
0.600233
-0.00464503
0.546499
-0.00531997
0.497645
-0.00588067
0.452923
-0.00632383
0.412416
-0.00666465
0.375146
-0.00688663
0.341677
-0.00702142
0.310461
-0.00701895
0.283059
-0.00697306
0.256623
-0.00673602
0.234629
-0.00648304
0.211903
-0.00600447
0.194363
-0.00506808
0.172495
-0.00276655
0.146184
0.0941748
0.0258062
0.926774
-0.0275108
0.0240629
0.927924
0.0223462
0.929154
0.0206301
0.93071
0.0189133
0.932439
0.0172029
0.934044
0.0155002
0.935672
0.0138135
0.937334
0.0121461
0.939081
0.0105032
0.940908
0.00889077
0.942813
0.00731468
0.944793
0.00578328
0.946851
0.00428982
0.958377
0.00299037
0.873209
0.00186532
0.795478
0.000900513
0.724583
8.02403e-05
0.659873
-0.000610896
0.600924
-0.00118652
0.547075
-0.00165615
0.498115
-0.0020333
0.4533
-0.00232375
0.412707
-0.00254854
0.37537
-0.00270472
0.341833
-0.00283117
0.310587
-0.0029001
0.283127
-0.0029557
0.256679
-0.00297747
0.23465
-0.00305086
0.211977
-0.00303359
0.194345
-0.0026808
0.172142
-0.00128219
0.144785
0.0928926
0.0230702
0.928021
-0.0243172
0.021792
0.929202
0.0205464
0.9304
0.0193081
0.931949
0.0180784
0.933669
0.0168634
0.935259
0.0156638
0.936871
0.0144883
0.938509
0.0133391
0.94023
0.0122217
0.942026
0.0111405
0.943894
0.0101008
0.945833
0.0091072
0.947845
0.00815654
0.959328
0.00734029
0.874025
0.00664026
0.796178
0.00603552
0.725188
0.00550774
0.660401
0.00504072
0.601391
0.00461497
0.5475
0.00421486
0.498515
0.00382138
0.453694
0.00342482
0.413103
0.00300405
0.375791
0.00256425
0.342273
0.00207486
0.311076
0.00157024
0.283632
0.00100784
0.257241
0.000453572
0.235205
-0.000225384
0.212655
-0.000728571
0.194849
-0.000944587
0.172358
-0.000197493
0.144038
0.0926951
0.0170782
0.929355
-0.0184122
0.0157211
0.930559
0.0143971
0.931724
0.0130862
0.933259
0.0117892
0.934966
0.0105132
0.936535
0.00925797
0.938127
0.00803169
0.939735
0.00683617
0.941426
0.00567645
0.943185
0.00455652
0.945014
0.00348008
0.94691
0.00245178
0.948873
0.0014636
0.960316
0.000612756
0.874876
-0.000125226
0.796916
-0.000765877
0.725829
-0.00132906
0.660964
-0.00182631
0.601888
-0.00226925
0.547943
-0.00266231
0.498908
-0.00301468
0.454046
-0.00331896
0.413407
-0.00358764
0.37606
-0.00379723
0.342483
-0.00397485
0.311254
-0.00407155
0.283729
-0.00418501
0.257355
-0.00416089
0.235181
-0.00417452
0.212669
-0.00389328
0.194567
-0.00316835
0.171633
-0.0014193
0.142289
0.0912758
0.0112529
0.930488
-0.012386
0.0101044
0.931707
0.00899345
0.932835
0.00789971
0.934353
0.00682632
0.936039
0.00578055
0.937581
0.00476087
0.939146
0.00377592
0.94072
0.00282662
0.942375
0.00191842
0.944094
0.00105464
0.945878
0.000239584
0.947725
-0.000522957
0.949636
-0.00123507
0.961028
-0.00182858
0.87547
-0.00231822
0.797405
-0.00271965
0.72623
-0.00304237
0.661287
-0.00329759
0.602143
-0.00349179
0.548137
-0.00363525
0.499051
-0.00373023
0.454141
-0.00378149
0.413459
-0.00380325
0.376082
-0.00378768
0.342467
-0.00377004
0.311236
-0.00371272
0.283671
-0.00369784
0.25734
-0.00362352
0.235106
-0.00360465
0.21265
-0.00337094
0.194334
-0.00257327
0.170835
-0.000884698
0.1406
0.0903911
0.00946642
0.931725
-0.010704
0.00821929
0.932955
0.00701224
0.934042
0.00582548
0.93554
0.00466509
0.9372
0.00353595
0.93871
0.00243777
0.940245
0.00137837
0.94178
0.000358883
0.943395
-0.000615039
0.945067
-0.0015394
0.946802
-0.00240914
0.948594
-0.00321747
0.950444
-0.00396493
0.961775
-0.00457363
0.876078
-0.00506217
0.797894
-0.00544079
0.726609
-0.00572461
0.661571
-0.00592128
0.60234
-0.00604277
0.548259
-0.00609479
0.499103
-0.00609181
0.454138
-0.00603067
0.413397
-0.00593566
0.375987
-0.00579047
0.342322
-0.00562791
0.311074
-0.0054074
0.283451
-0.00519723
0.25713
-0.00491235
0.234821
-0.00466038
0.212398
-0.00416902
0.193842
-0.00296793
0.169634
-0.000970769
0.138603
0.0894203
0.00633272
0.932553
-0.00716059
0.00549999
0.933787
0.00471273
0.934829
0.00394921
0.936304
0.00321773
0.937931
0.00252319
0.939405
0.00186492
0.940903
0.00125094
0.942394
0.000682154
0.943964
0.000164576
0.945585
-0.000297978
0.947264
-0.000700322
0.948997
-0.00103679
0.950781
-0.00130393
0.962043
-0.00147751
0.876252
-0.00157389
0.79799
-0.00160848
0.726643
-0.00159634
0.661558
-0.00154969
0.602293
-0.00148526
0.548194
-0.00141065
0.499029
-0.00134302
0.454071
-0.00127631
0.413331
-0.001237
0.375947
-0.00120488
0.34229
-0.00121951
0.311089
-0.00124418
0.283476
-0.00134016
0.257226
-0.00143728
0.234919
-0.00161718
0.212578
-0.00154775
0.193773
-0.000860074
0.168947
0.000328065
0.137415
0.0897484
0.001563
0.933324
-0.00233361
0.000793438
0.934557
7.25211e-05
0.93555
-0.000623186
0.936999
-0.00128112
0.938589
-0.00189925
0.940023
-0.0024771
0.941481
-0.00300778
0.942924
-0.00349068
0.944446
-0.00392024
0.946015
-0.00429346
0.947638
-0.00460632
0.94931
-0.00485469
0.951029
-0.00503722
0.962225
-0.00514002
0.876355
-0.0051826
0.798033
-0.00517808
0.726639
-0.00514256
0.661523
-0.00508548
0.602236
-0.00501324
0.548122
-0.00493085
0.498946
-0.00484313
0.453983
-0.00474493
0.413233
-0.00465138
0.375854
-0.0045405
0.342179
-0.00444151
0.31099
-0.00430558
0.28334
-0.00418979
0.25711
-0.00401089
0.23474
-0.00384467
0.212412
-0.00331617
0.193244
-0.00199356
0.167624
-0.000273318
0.135695
0.0894751
-0.00213124
0.933945
0.00150971
-0.00274645
0.935172
-0.00330998
0.936114
-0.00384714
0.937536
-0.00434168
0.939084
-0.00479375
0.940475
-0.00520189
0.941889
-0.00556029
0.943283
-0.00586855
0.944755
-0.00612144
0.946268
-0.00631675
0.947833
-0.00645082
0.949444
-0.00652084
0.951099
-0.00652381
0.962228
-0.00646523
0.876296
-0.00635933
0.797927
-0.00621857
0.726498
-0.00604893
0.661353
-0.00585912
0.602046
-0.00565019
0.547913
-0.00543013
0.498726
-0.00520234
0.453755
-0.00496071
0.412991
-0.00472334
0.375616
-0.00447054
0.341926
-0.00423781
0.310757
-0.00398664
0.283089
-0.00378129
0.256904
-0.00355179
0.23451
-0.00336377
0.212224
-0.00281914
0.1927
-0.00145793
0.166263
9.35726e-05
0.134143
0.0895687
-0.00527701
0.934441
0.00478158
-0.00575867
0.935654
-0.00618787
0.936543
-0.00658808
0.937937
-0.00694151
0.939437
-0.00725015
0.940783
-0.00751166
0.94215
-0.00772117
0.943492
-0.00787827
0.944912
-0.00797799
0.946367
-0.00801825
0.947873
-0.0079952
0.949421
-0.00790522
0.951009
-0.00774198
0.962065
-0.00752458
0.876079
-0.0072658
0.797668
-0.00697386
0.726206
-0.00666024
0.66104
-0.00633061
0.601717
-0.00599669
0.547579
-0.00566275
0.498392
-0.00533937
0.453432
-0.00502013
0.412672
-0.0047272
0.375323
-0.00444032
0.341639
-0.00419286
0.310509
-0.00394384
0.28284
-0.00374904
0.25671
-0.0035371
0.234298
-0.0033531
0.21204
-0.00272912
0.192076
-0.00126416
0.164798
0.000185163
0.132694
0.0897538
-0.00664402
0.934894
0.00619041
-0.00707732
0.936087
-0.00745753
0.936923
-0.00780672
0.938286
-0.00810576
0.939736
-0.00835822
0.941036
-0.00856077
0.942353
-0.00870947
0.943641
-0.00880375
0.945006
-0.00883852
0.946402
-0.00881174
0.947846
-0.00871899
0.949328
-0.00855694
0.950847
-0.00831853
0.961826
-0.00803337
0.875793
-0.00771579
0.797351
-0.00737988
0.72587
-0.00703486
0.660695
-0.00669285
0.601375
-0.00635473
0.547241
-0.00602848
0.498066
-0.00571533
0.453119
-0.00541325
0.41237
-0.00513299
0.375043
-0.00485682
0.341363
-0.00460894
0.310261
-0.00435089
0.282581
-0.00413408
0.256493
-0.00388638
0.23405
-0.00363037
0.211784
-0.0028867
0.191332
-0.0012454
0.163156
0.000188883
0.13126
0.0899427
-0.0123012
0.93517
0.012026
-0.012547
0.936333
-0.0127415
0.937118
-0.0129025
0.938447
-0.0130101
0.939844
-0.0130688
0.941095
-0.0130747
0.942359
-0.0130248
0.943591
-0.0129188
0.9449
-0.0127516
0.946235
-0.0125221
0.947617
-0.0122263
0.949032
-0.0118624
0.950483
-0.0114222
0.961386
-0.0109563
0.875328
-0.0104749
0.796869
-0.00998651
0.725382
-0.00949518
0.660203
-0.0090058
0.600885
-0.00851794
0.546753
-0.00803669
0.497585
-0.00756807
0.45265
-0.00710074
0.411902
-0.00665285
0.374595
-0.00620319
0.340914
-0.0057809
0.309839
-0.00534929
0.28215
-0.00496328
0.256107
-0.00455642
0.233644
-0.00414934
0.211377
-0.00319042
0.190373
-0.00139478
0.161361
4.73158e-05
0.129817
0.08999
-0.0166068
0.935115
0.016661
-0.0165159
0.936242
-0.016375
0.936977
-0.0161967
0.938269
-0.0159622
0.939609
-0.0156761
0.940808
-0.0153345
0.942017
-0.0149353
0.943192
-0.0144781
0.944443
-0.0139583
0.945715
-0.013375
0.947034
-0.0127242
0.948381
-0.0120039
0.949763
-0.0112018
0.960584
-0.0104041
0.87453
-0.00961921
0.796084
-0.00885544
0.724618
-0.00811838
0.659466
-0.00741644
0.600183
-0.00675222
0.546089
-0.00612971
0.496962
-0.0055589
0.452079
-0.00502969
0.411373
-0.00456542
0.374131
-0.0041431
0.340491
-0.00379368
0.30949
-0.00348014
0.281836
-0.00324643
0.255873
-0.0030345
0.233432
-0.0028174
0.21116
-0.00195965
0.189515
-0.000472992
0.159874
0.00047765
0.128867
0.0904677
-0.017936
0.935234
0.017817
-0.0180133
0.936319
-0.018042
0.937005
-0.0180313
0.938258
-0.0179631
0.939541
-0.0178422
0.940687
-0.0176645
0.94184
-0.0174288
0.942956
-0.0171345
0.944148
-0.0167775
0.945358
-0.0163574
0.946614
-0.0158705
0.947894
-0.0153166
0.949209
-0.0146855
0.959953
-0.0140503
0.873895
-0.0134192
0.795453
-0.0128039
0.724003
-0.012205
0.658867
-0.0116302
0.599609
-0.011072
0.545531
-0.0105377
0.496428
-0.010017
0.451558
-0.00950738
0.410863
-0.00900684
0.37363
-0.00849084
0.339975
-0.00798177
0.308981
-0.00743474
0.281289
-0.00690427
0.255343
-0.00630492
0.232832
-0.00561809
0.210473
-0.00417838
0.188076
-0.00204588
0.157742
-0.00039476
0.127216
0.0900729
-0.0228733
0.934922
0.0231853
-0.0225128
0.935959
-0.0221049
0.936598
-0.0216538
0.937807
-0.0211426
0.93903
-0.0205758
0.940121
-0.0199499
0.941214
-0.019264
0.94227
-0.0185178
0.943402
-0.0177076
0.944548
-0.0168331
0.945739
-0.0158913
0.946953
-0.014882
0.9482
-0.0137911
0.958862
-0.0127357
0.872839
-0.0117216
0.794439
-0.0107533
0.723034
-0.009832
0.657946
-0.00896186
0.598738
-0.00813857
0.544708
-0.00736537
0.495655
-0.00664185
0.450835
-0.00596657
0.410188
-0.00535254
0.373016
-0.004785
0.339408
-0.00429877
0.308494
-0.00385928
0.28085
-0.00352408
0.255007
-0.00321805
0.232526
-0.00287313
0.210128
-0.00179034
0.186993
-0.000316362
0.156268
0.000523394
0.126376
0.0905963
-0.0296327
0.934259
0.0302961
-0.0289143
0.93524
-0.0281516
0.935835
-0.0273425
0.936998
-0.0264714
0.938159
-0.0255418
0.939191
-0.024551
0.940223
-0.0234985
0.941218
-0.0223841
0.942288
-0.0212042
0.943368
-0.019959
0.944494
-0.0186454
0.945639
-0.0172641
0.946818