# vtk DataFile Version 2.0
track0
ASCII
DATASET POLYDATA
POINTS 8204 float
0.0624513 -0.666667 -0.0389216
0.0634193 -0.666667 -0.0391716
0.0643872 -0.666667 -0.0394217
0.0665167 -0.666667 -0.0399718
0.0675815 -0.666667 -0.0402468
0.0699319 -0.666667 -0.0408202
0.0711071 -0.666667 -0.0411069
0.0737039 -0.666667 -0.041689
0.0750023 -0.666667 -0.04198
0.077863 -0.666667 -0.0426016
0.0792933 -0.666667 -0.0429124
0.0824485 -0.666667 -0.0435559
0.0840261 -0.666667 -0.0438776
0.0875033 -0.666667 -0.0445525
0.089242 -0.666667 -0.0448899
0.093073 -0.666667 -0.0456003
0.0949885 -0.666667 -0.0459556
0.099214 -0.666667 -0.0466733
0.101327 -0.666667 -0.0470322
0.105984 -0.666667 -0.0477644
0.108313 -0.666667 -0.0481305
0.113445 -0.666667 -0.0488759
0.116011 -0.666667 -0.0492486
0.121657 -0.666667 -0.0500685
0.124479 -0.666667 -0.0504784
0.130706 -0.666667 -0.0512601
0.133819 -0.666667 -0.0516509
0.140681 -0.666667 -0.0523965
0.144112 -0.666667 -0.0527694
0.151663 -0.666667 -0.0535662
0.155438 -0.666667 -0.0539647
0.163756 -0.666667 -0.0547255
0.167915 -0.666667 -0.0551059
0.177077 -0.666667 -0.0557849
0.181658 -0.666667 -0.0561244
0.191741 -0.666667 -0.0568037
0.196783 -0.666667 -0.0571433
0.207464 -0.666667 -0.0576636
0.212805 -0.666667 -0.0579237
0.223486 -0.666667 -0.058444
0.228826 -0.666667 -0.0587041
0.239515 -0.666667 -0.0590136
0.24486 -0.666667 -0.0591683
0.255551 -0.666667 -0.0594238
0.260896 -0.666667 -0.0595516
0.271588 -0.666667 -0.059751
0.276934 -0.666667 -0.0598507
0.287627 -0.666667 -0.0598771
0.292974 -0.666667 -0.0598903
0.303668 -0.666667 -0.0599167
0.309015 -0.666667 -0.0599299
0.065452 -0.666667 -0.0396967
0.0665167 -0.666667 -0.0399718
0.0675815 -0.666667 -0.0402468
0.0699319 -0.666667 -0.0408202
0.0711071 -0.666667 -0.0411069
0.0737039 -0.666667 -0.041689
0.0750023 -0.666667 -0.04198
0.077863 -0.666667 -0.0426016
0.0792933 -0.666667 -0.0429124
0.0824485 -0.666667 -0.0435559
0.0840261 -0.666667 -0.0438776
0.0875033 -0.666667 -0.0445525
0.089242 -0.666667 -0.0448899
0.093073 -0.666667 -0.0456003
0.0949885 -0.666667 -0.0459556
0.099214 -0.666667 -0.0466733
0.101327 -0.666667 -0.0470322
0.105984 -0.666667 -0.0477644
0.108313 -0.666667 -0.0481305
0.113445 -0.666667 -0.0488759
0.116011 -0.666667 -0.0492486
0.121657 -0.666667 -0.0500685
0.124479 -0.666667 -0.0504784
0.130706 -0.666667 -0.0512601
0.133819 -0.666667 -0.0516509
0.140681 -0.666667 -0.0523965
0.144112 -0.666667 -0.0527694
0.151663 -0.666667 -0.0535662
0.155438 -0.666667 -0.0539647
0.163756 -0.666667 -0.0547255
0.167915 -0.666667 -0.0551059
0.177077 -0.666667 -0.0557849
0.181658 -0.666667 -0.0561244
0.191741 -0.666667 -0.0568037
0.196783 -0.666667 -0.0571433
0.207464 -0.666667 -0.0576636
0.212805 -0.666667 -0.0579237
0.223486 -0.666667 -0.058444
0.228826 -0.666667 -0.0587041
0.239515 -0.666667 -0.0590136
0.24486 -0.666667 -0.0591683
0.255551 -0.666667 -0.0594238
0.260896 -0.666667 -0.0595516
0.271588 -0.666667 -0.059751
0.276934 -0.666667 -0.0598507
0.287627 -0.666667 -0.0598771
0.292974 -0.666667 -0.0598903
0.303668 -0.666667 -0.0599167
0.309015 -0.666667 -0.0599299
0.319708 -0.666667 -0.0598792
0.325055 -0.666667 -0.0598539
0.0687567 -0.666667 -0.0405335
0.0699319 -0.666667 -0.0408202
0.0711071 -0.666667 -0.0411069
0.0737039 -0.666667 -0.041689
0.0750023 -0.666667 -0.04198
0.077863 -0.666667 -0.0426016
0.0792933 -0.666667 -0.0429124
0.0824485 -0.666667 -0.0435559
0.0840261 -0.666667 -0.0438776
0.0875033 -0.666667 -0.0445525
0.089242 -0.666667 -0.0448899
0.093073 -0.666667 -0.0456003
0.0949885 -0.666667 -0.0459556
0.099214 -0.666667 -0.0466733
0.101327 -0.666667 -0.0470322
0.105984 -0.666667 -0.0477644
0.108313 -0.666667 -0.0481305
0.113445 -0.666667 -0.0488759
0.116011 -0.666667 -0.0492486
0.121657 -0.666667 -0.0500685
0.124479 -0.666667 -0.0504784
0.130706 -0.666667 -0.0512601
0.133819 -0.666667 -0.0516509
0.140681 -0.666667 -0.0523965
0.144112 -0.666667 -0.0527694
0.151663 -0.666667 -0.0535662
0.155438 -0.666667 -0.0539647
0.163756 -0.666667 -0.0547255
0.167915 -0.666667 -0.0551059
0.177077 -0.666667 -0.0557849
0.181658 -0.666667 -0.0561244
0.191741 -0.666667 -0.0568037
0.196783 -0.666667 -0.0571433
0.207464 -0.666667 -0.0576636
0.212805 -0.666667 -0.0579237
0.223486 -0.666667 -0.058444
0.228826 -0.666667 -0.0587041
0.239515 -0.666667 -0.0590136
0.24486 -0.666667 -0.0591683
0.255551 -0.666667 -0.0594238
0.260896 -0.666667 -0.0595516
0.271588 -0.666667 -0.059751
0.276934 -0.666667 -0.0598507
0.287627 -0.666667 -0.0598771
0.292974 -0.666667 -0.0598903
0.303668 -0.666667 -0.0599167
0.309015 -0.666667 -0.0599299
0.319708 -0.666667 -0.0598792
0.325055 -0.666667 -0.0598539
0.335747 -0.666667 -0.0596835
0.341094 -0.666667 -0.0595984
0.0737039 -0.333333 -0.041689
0.0750023 -0.333333 -0.04198
0.0764327 -0.333333 -0.0422908
0.0792933 -0.333333 -0.0429124
0.0808709 -0.333333 -0.0432341
0.0840261 -0.333333 -0.0438776
0.0857647 -0.333333 -0.044215
0.089242 -0.333333 -0.0448899
0.0911575 -0.333333 -0.0452451
0.0949885 -0.333333 -0.0459556
0.0971013 -0.333333 -0.0463145
0.101327 -0.333333 -0.0470322
0.103655 -0.333333 -0.0473983
0.108313 -0.333333 -0.0481305
0.110879 -0.333333 -0.0485032
0.116011 -0.333333 -0.0492486
0.118834 -0.333333 -0.0496585
0.124479 -0.333333 -0.0504784
0.127592 -0.333333 -0.0508693
0.133819 -0.333333 -0.0516509
0.13725 -0.333333 -0.0520237
0.144112 -0.333333 -0.0527694
0.147887 -0.333333 -0.0531678
0.155438 -0.333333 -0.0539647
0.159597 -0.333333 -0.0543451
0.167915 -0.333333 -0.0551059
0.172496 -0.333333 -0.0554454
0.181658 -0.333333 -0.0561244
0.1867 -0.333333 -0.056464
0.196783 -0.333333 -0.0571433
0.202124 -0.333333 -0.0574034
0.212805 -0.333333 -0.0579237
0.218145 -0.333333 -0.0581838
0.228826 -0.333333 -0.0587041
0.234171 -0.333333 -0.0588588
0.24486 -0.333333 -0.0591683
0.250205 -0.333333 -0.0592961
0.260896 -0.333333 -0.0595516
0.266242 -0.333333 -0.0596513
0.276934 -0.333333 -0.0598507
0.282281 -0.333333 -0.0598639
0.292974 -0.333333 -0.0598903
0.298321 -0.333333 -0.0599035
0.309015 -0.333333 -0.0599299
0.314361 -0.333333 -0.0599045
0.325055 -0.333333 -0.0598539
0.330401 -0.333333 -0.0597687
0.341094 -0.333333 -0.0595984
0.346439 -0.333333 -0.0594969
0.357131 -0.333333 -0.059294
0.077863 -0.333333 -0.0426016
0.0792933 -0.333333 -0.0429124
0.0808709 -0.333333 -0.0432341
0.0840261 -0.333333 -0.0438776
0.0857647 -0.333333 -0.044215
0.089242 -0.333333 -0.0448899
0.0911575 -0.333333 -0.0452451
0.0949885 -0.333333 -0.0459556
0.0971013 -0.333333 -0.0463145
0.101327 -0.333333 -0.0470322
0.103655 -0.333333 -0.0473983
0.108313 -0.333333 -0.0481305
0.110879 -0.333333 -0.0485032
0.116011 -0.333333 -0.0492486
0.118834 -0.333333 -0.0496585
0.124479 -0.333333 -0.0504784
0.127592 -0.333333 -0.0508693
0.133819 -0.333333 -0.0516509
0.13725 -0.333333 -0.0520237
0.144112 -0.333333 -0.0527694
0.147887 -0.333333 -0.0531678
0.155438 -0.333333 -0.0539647
0.159597 -0.333333 -0.0543451
0.167915 -0.333333 -0.0551059
0.172496 -0.333333 -0.0554454
0.181658 -0.333333 -0.0561244
0.1867 -0.333333 -0.056464
0.196783 -0.333333 -0.0571433
0.202124 -0.333333 -0.0574034
0.212805 -0.333333 -0.0579237
0.218145 -0.333333 -0.0581838
0.228826 -0.333333 -0.0587041
0.234171 -0.333333 -0.0588588
0.24486 -0.333333 -0.0591683
0.250205 -0.333333 -0.0592961
0.260896 -0.333333 -0.0595516
0.266242 -0.333333 -0.0596513
0.276934 -0.333333 -0.0598507
0.282281 -0.333333 -0.0598639
0.292974 -0.333333 -0.0598903
0.298321 -0.333333 -0.0599035
0.309015 -0.333333 -0.0599299
0.314361 -0.333333 -0.0599045
0.325055 -0.333333 -0.0598539
0.330401 -0.333333 -0.0597687
0.341094 -0.333333 -0.0595984
0.346439 -0.333333 -0.0594969
0.357131 -0.333333 -0.059294
0.362476 -0.333333 -0.0591368
0.373165 -0.333333 -0.0588223
0.0824485 -0.333333 -0.0435559
0.0840261 -0.333333 -0.0438776
0.0857647 -0.333333 -0.044215
0.089242 -0.333333 -0.0448899
0.0911575 -0.333333 -0.0452451
0.0949885 -0.333333 -0.0459556
0.0971013 -0.333333 -0.0463145
0.101327 -0.333333 -0.0470322
0.103655 -0.333333 -0.0473983
0.108313 -0.333333 -0.0481305
0.110879 -0.333333 -0.0485032
0.116011 -0.333333 -0.0492486
0.118834 -0.333333 -0.0496585
0.124479 -0.333333 -0.0504784
0.127592 -0.333333 -0.0508693
0.133819 -0.333333 -0.0516509
0.13725 -0.333333 -0.0520237
0.144112 -0.333333 -0.0527694
0.147887 -0.333333 -0.0531678
0.155438 -0.333333 -0.0539647
0.159597 -0.333333 -0.0543451
0.167915 -0.333333 -0.0551059
0.172496 -0.333333 -0.0554454
0.181658 -0.333333 -0.0561244
0.1867 -0.333333 -0.056464
0.196783 -0.333333 -0.0571433
0.202124 -0.333333 -0.0574034
0.212805 -0.333333 -0.0579237
0.218145 -0.333333 -0.0581838
0.228826 -0.333333 -0.0587041
0.234171 -0.333333 -0.0588588
0.24486 -0.333333 -0.0591683
0.250205 -0.333333 -0.0592961
0.260896 -0.333333 -0.0595516
0.266242 -0.333333 -0.0596513
0.276934 -0.333333 -0.0598507
0.282281 -0.333333 -0.0598639
0.292974 -0.333333 -0.0598903
0.298321 -0.333333 -0.0599035
0.309015 -0.333333 -0.0599299
0.314361 -0.333333 -0.0599045
0.325055 -0.333333 -0.0598539
0.330401 -0.333333 -0.0597687
0.341094 -0.333333 -0.0595984
0.346439 -0.333333 -0.0594969
0.357131 -0.333333 -0.059294
0.362476 -0.333333 -0.0591368
0.373165 -0.333333 -0.0588223
0.378509 -0.333333 -0.0586502
0.389197 -0.333333 -0.058306
0.0875033 -0.333333 -0.0445525
0.089242 -0.333333 -0.0448899
0.0911575 -0.333333 -0.0452451
0.0949885 -0.333333 -0.0459556
0.0971013 -0.333333 -0.0463145
0.101327 -0.333333 -0.0470322
0.103655 -0.333333 -0.0473983
0.108313 -0.333333 -0.0481305
0.110879 -0.333333 -0.0485032
0.116011 -0.333333 -0.0492486
0.118834 -0.333333 -0.0496585
0.124479 -0.333333 -0.0504784
0.127592 -0.333333 -0.0508693
0.133819 -0.333333 -0.0516509
0.13725 -0.333333 -0.0520237
0.144112 -0.333333 -0.0527694
0.147887 -0.333333 -0.0531678
0.155438 -0.333333 -0.0539647
0.159597 -0.333333 -0.0543451
0.167915 -0.333333 -0.0551059
0.172496 -0.333333 -0.0554454
0.181658 -0.333333 -0.0561244
0.1867 -0.333333 -0.056464
0.196783 -0.333333 -0.0571433
0.202124 -0.333333 -0.0574034
0.212805 -0.333333 -0.0579237
0.218145 -0.333333 -0.0581838
[...]
POINT_DATA 8204
 FIELD attributes 2
U 3 8204 float
-1.2355e-13 	-4.17768e-34 	4.25269e-14 3.44174e-13 	1.16378e-33 	-1.18468e-13 0 	0 	0 4.14312e-13 	-2.09411e-33 	-1.36735e-13 0 	0 	0 -4.19513e-13 	3.35707e-34 	1.31325e-13 0 	0 	0 -4.15616e-13 	-4.86676e-35 	1.22506e-13 0 	0 	0 -2.9673e-13 	-2.76541e-36 	8.29523e-14 0 	0 	0 1.75993e-13 	7.16956e-36 	-4.65987e-14 0 	0 	0 -2.97774e-13 	1.19456e-35 	7.46579e-14 0 	0 	0 3.01469e-13 	7.00439e-34 	-7.14317e-14 0 	0 	0 -9.83233e-14 	6.09075e-37 	2.17932e-14 0 	0 	0 9.89176e-14 	-8.7727e-34 	-2.0518e-14 0 	0 	0 2.1806e-13 	-2.04443e-33 	-4.27162e-14 0 	0 	0 4.1111e-13 	-7.0585e-35 	-7.61342e-14 0 	0 	0 2.33263e-13 	6.49435e-33 	-3.93362e-14 0 	0 	0 1.7186e-13 	-6.33456e-35 	-2.65644e-14 0 	0 	0 3.22459e-13 	-4.62489e-33 	-4.6524e-14 0 	0 	0 0 	0 	0 0 	0 	0 2.19225e-13 	4.23351e-33 	-2.51153e-14 0 	0 	0 0 	0 	0 0 	0 	0 -2.98325e-13 	0 	2.5935e-14 0 	0 	0 2.41603e-13 	0 	-1.85088e-14 0 	0 	0 -2.90764e-13 	3.28717e-33 	1.78184e-14 0 	0 	0 2.58627e-13 	2.70199e-33 	-1.3046e-14 0 	0 	0 4.23568e-14 	3.26835e-35 	-1.75409e-15 0 	0 	0 -2.74856e-13 	-4.70348e-34 	7.68853e-15 0 	0 	0 5.31297e-15 	-2.14226e-38 	-1.12739e-16 0 	0 	0
-4.23319e-13 	2.13964e-33 	1.39708e-13 -4.14312e-13 	2.09411e-33 	1.36735e-13 0 	0 	0 -4.19513e-13 	3.35707e-34 	1.31325e-13 0 	0 	0 -4.15616e-13 	-4.86676e-35 	1.22506e-13 0 	0 	0 -2.9673e-13 	-2.76541e-36 	8.29523e-14 0 	0 	0 1.75993e-13 	7.16956e-36 	-4.65987e-14 0 	0 	0 -2.97774e-13 	1.19456e-35 	7.46579e-14 0 	0 	0 3.01469e-13 	7.00439e-34 	-7.14317e-14 0 	0 	0 -9.83233e-14 	6.09075e-37 	2.17932e-14 0 	0 	0 9.89176e-14 	-8.7727e-34 	-2.0518e-14 0 	0 	0 2.1806e-13 	-2.04443e-33 	-4.27162e-14 0 	0 	0 4.1111e-13 	-7.0585e-35 	-7.61342e-14 0 	0 	0 2.33263e-13 	6.49435e-33 	-3.93362e-14 0 	0 	0 1.7186e-13 	-6.33456e-35 	-2.65644e-14 0 	0 	0 3.22459e-13 	-4.62489e-33 	-4.6524e-14 0 	0 	0 0 	0 	0 0 	0 	0 2.19225e-13 	4.23351e-33 	-2.51153e-14 0 	0 	0 0 	0 	0 0 	0 	0 -2.98325e-13 	0 	2.5935e-14 0 	0 	0 2.41603e-13 	0 	-1.85088e-14 0 	0 	0 -2.90764e-13 	3.28717e-33 	1.78184e-14 0 	0 	0 2.58627e-13 	2.70199e-33 	-1.3046e-14 0 	0 	0 4.23568e-14 	3.26835e-35 	-1.75409e-15 0 	0 	0 -2.74856e-13 	-4.70348e-34 	7.68853e-15 0 	0 	0 5.31297e-15 	-2.14226e-38 	-1.12739e-16 0 	0 	0 9.41064e-15 	0 	-1.2053e-16 0 	0 	0
-4.24123e-13 	3.39396e-34 	1.32769e-13 -4.19513e-13 	3.35707e-34 	1.31325e-13 0 	0 	0 -4.15616e-13 	-4.86676e-35 	1.22506e-13 0 	0 	0 -2.9673e-13 	-2.76541e-36 	8.29523e-14 0 	0 	0 1.75993e-13 	7.16956e-36 	-4.65987e-14 0 	0 	0 -2.97774e-13 	1.19456e-35 	7.46579e-14 0 	0 	0 3.01469e-13 	7.00439e-34 	-7.14317e-14 0 	0 	0 -9.83233e-14 	6.09075e-37 	2.17932e-14 0 	0 	0 9.89176e-14 	-8.7727e-34 	-2.0518e-14 0 	0 	0 2.1806e-13 	-2.04443e-33 	-4.27162e-14 0 	0 	0 4.1111e-13 	-7.0585e-35 	-7.61342e-14 0 	0 	0 2.33263e-13 	6.49435e-33 	-3.93362e-14 0 	0 	0 1.7186e-13 	-6.33456e-35 	-2.65644e-14 0 	0 	0 3.22459e-13 	-4.62489e-33 	-4.6524e-14 0 	0 	0 0 	0 	0 0 	0 	0 2.19225e-13 	4.23351e-33 	-2.51153e-14 0 	0 	0 0 	0 	0 0 	0 	0 -2.98325e-13 	0 	2.5935e-14 0 	0 	0 2.41603e-13 	0 	-1.85088e-14 0 	0 	0 -2.90764e-13 	3.28717e-33 	1.78184e-14 0 	0 	0 2.58627e-13 	2.70199e-33 	-1.3046e-14 0 	0 	0 4.23568e-14 	3.26835e-35 	-1.75409e-15 0 	0 	0 -2.74856e-13 	-4.70348e-34 	7.68853e-15 0 	0 	0 5.31297e-15 	-2.14226e-38 	-1.12739e-16 0 	0 	0 9.41064e-15 	0 	-1.2053e-16 0 	0 	0 2.84759e-13 	-4.26043e-33 	-4.20151e-16 0 	0 	0
-2.8019e-14 	-3.28096e-36 	8.25881e-15 0 	0 	0 2.826e-13 	2.63373e-36 	-7.90022e-14 0 	0 	0 -1.71237e-13 	-6.97579e-36 	4.53393e-14 0 	0 	0 3.0738e-13 	-1.23309e-35 	-7.70663e-14 0 	0 	0 -3.11194e-13 	-7.23034e-34 	7.37359e-14 0 	0 	0 1.17988e-13 	-7.30889e-37 	-2.61518e-14 0 	0 	0 -9.89176e-14 	8.7727e-34 	2.0518e-14 0 	0 	0 -2.1806e-13 	2.04443e-33 	4.27162e-14 0 	0 	0 -4.01083e-13 	6.88634e-35 	7.42773e-14 0 	0 	0 -4.86809e-13 	-1.35534e-32 	8.20929e-14 0 	0 	0 -2.02188e-13 	7.45242e-35 	3.12522e-14 0 	0 	0 -3.02306e-13 	4.33584e-33 	4.36163e-14 0 	0 	0 0 	0 	0 0 	0 	0 -2.19225e-13 	-4.23351e-33 	2.51153e-14 0 	0 	0 0 	0 	0 0 	0 	0 3.07949e-13 	0 	-2.67716e-14 0 	0 	0 -2.36865e-13 	0 	1.81459e-14 0 	0 	0 2.88438e-13 	-3.26087e-33 	-1.76758e-14 0 	0 	0 -3.31225e-13 	-3.46044e-33 	1.6708e-14 0 	0 	0 -4.01275e-14 	-3.09633e-35 	1.66177e-15 0 	0 	0 2.74856e-13 	4.70348e-34 	-7.68853e-15 0 	0 	0 -4.78167e-15 	1.92803e-38 	1.01465e-16 0 	0 	0 -1.04563e-14 	0 	1.33922e-16 0 	0 	0 -2.86807e-13 	4.29108e-33 	4.23173e-16 0 	0 	0 2.81055e-13 	-2.61787e-34 	1.63007e-15 0 	0 	0
-2.9673e-13 	-2.76541e-36 	8.29523e-14 0 	0 	0 -1.71237e-13 	-6.97579e-36 	4.53393e-14 0 	0 	0 3.0738e-13 	-1.23309e-35 	-7.70663e-14 0 	0 	0 -3.11194e-13 	-7.23034e-34 	7.37359e-14 0 	0 	0 1.17988e-13 	-7.30889e-37 	-2.61518e-14 0 	0 	0 -9.89176e-14 	8.7727e-34 	2.0518e-14 0 	0 	0 -2.1806e-13 	2.04443e-33 	4.27162e-14 0 	0 	0 -4.01083e-13 	6.88634e-35 	7.42773e-14 0 	0 	0 -4.86809e-13 	-1.35534e-32 	8.20929e-14 0 	0 	0 -2.02188e-13 	7.45242e-35 	3.12522e-14 0 	0 	0 -3.02306e-13 	4.33584e-33 	4.36163e-14 0 	0 	0 0 	0 	0 0 	0 	0 -2.19225e-13 	-4.23351e-33 	2.51153e-14 0 	0 	0 0 	0 	0 0 	0 	0 3.07949e-13 	0 	-2.67716e-14 0 	0 	0 -2.36865e-13 	0 	1.81459e-14 0 	0 	0 2.88438e-13 	-3.26087e-33 	-1.76758e-14 0 	0 	0 -3.31225e-13 	-3.46044e-33 	1.6708e-14 0 	0 	0 -4.01275e-14 	-3.09633e-35 	1.66177e-15 0 	0 	0 2.74856e-13 	4.70348e-34 	-7.68853e-15 0 	0 	0 -4.78167e-15 	1.92803e-38 	1.01465e-16 0 	0 	0 -1.04563e-14 	0 	1.33922e-16 0 	0 	0 -2.86807e-13 	4.29108e-33 	4.23173e-16 0 	0 	0 2.81055e-13 	-2.61787e-34 	1.63007e-15 0 	0 	0 0 	0 	0 0 	0 	0
-3.51986e-13 	-1.43391e-35 	9.31974e-14 0 	0 	0 3.0738e-13 	-1.23309e-35 	-7.70663e-14 0 	0 	0 -3.11194e-13 	-7.23034e-34 	7.37359e-14 0 	0 	0 1.17988e-13 	-7.30889e-37 	-2.61518e-14 0 	0 	0 -9.89176e-14 	8.7727e-34 	2.0518e-14 0 	0 	0 -2.1806e-13 	2.04443e-33 	4.27162e-14 0 	0 	0 -4.01083e-13 	6.88634e-35 	7.42773e-14 0 	0 	0 -4.86809e-13 	-1.35534e-32 	8.20929e-14 0 	0 	0 -2.02188e-13 	7.45242e-35 	3.12522e-14 0 	0 	0 -3.02306e-13 	4.33584e-33 	4.36163e-14 0 	0 	0 0 	0 	0 0 	0 	0 -2.19225e-13 	-4.23351e-33 	2.51153e-14 0 	0 	0 0 	0 	0 0 	0 	0 3.07949e-13 	0 	-2.67716e-14 0 	0 	0 -2.36865e-13 	0 	1.81459e-14 0 	0 	0 2.88438e-13 	-3.26087e-33 	-1.76758e-14 0 	0 	0 -3.31225e-13 	-3.46044e-33 	1.6708e-14 0 	0 	0 -4.01275e-14 	-3.09633e-35 	1.66177e-15 0 	0 	0 2.74856e-13 	4.70348e-34 	-7.68853e-15 0 	0 	0 -4.78167e-15 	1.92803e-38 	1.01465e-16 0 	0 	0 -1.04563e-14 	0 	1.33922e-16 0 	0 	0 -2.86807e-13 	4.29108e-33 	4.23173e-16 0 	0 	0 2.81055e-13 	-2.61787e-34 	1.63007e-15 0 	0 	0 0 	0 	0 0 	0 	0 -6.11191e-14 	-1.78472e-33 	-1.2506e-15 0 	0 	0
4.80281e-14 	-1.9267e-36 	-1.20416e-14 0 	0 	0 -3.11194e-13 	-7.23034e-34 	7.37359e-14 0 	0 	0 1.17988e-13 	-7.30889e-37 	-2.61518e-14 0 	0 	0 -9.89176e-14 	8.7727e-34 	2.0518e-14 0 	0 	0 -2.1806e-13 	2.04443e-33 	4.27162e-14 0 	0 	0 -4.01083e-13 	6.88634e-35 	7.42773e-14 0 	0 	0 -4.86809e-13 	-1.35534e-32 	8.20929e-14 0 	0 	0 -2.02188e-13 	7.45242e-35 	3.12522e-14 0 	0 	0 -3.02306e-13 	4.33584e-33 	4.36163e-14 0 	0 	0 0 	0 	0 0 	0 	0 -2.19225e-13 	-4.23351e-33 	2.51153e-14 0 	0 	0 0 	0 	0 0 	0 	0 3.07949e-13 	0 	-2.67716e-14 0 	0 	0 -2.36865e-13 	0 	1.81459e-14 0 	0 	0 2.88438e-13 	-3.26087e-33 	-1.76758e-14 0 	0 	0 -3.31225e-13 	-3.46044e-33 	1.6708e-14 0 	0 	0 -4.01275e-14 	-3.09633e-35 	1.66177e-15 0 	0 	0 2.74856e-13 	4.70348e-34 	-7.68853e-15 0 	0 	0 -4.78167e-15 	1.92803e-38 	1.01465e-16 0 	0 	0 -1.04563e-14 	0 	1.33922e-16 0 	0 	0 -2.86807e-13 	4.29108e-33 	4.23173e-16 0 	0 	0 2.81055e-13 	-2.61787e-34 	1.63007e-15 0 	0 	0 0 	0 	0 0 	0 	0 -6.11191e-14 	-1.78472e-33 	-1.2506e-15 0 	0 	0 -1.66375e-13 	-3.17009e-34 	-3.9323e-15 0 	0 	0
3.01469e-13 	7.00439e-34 	-7.14317e-14 0 	0 	0 1.17988e-13 	-7.30889e-37 	-2.61518e-14 0 	0 	0 -9.89176e-14 	8.7727e-34 	2.0518e-14 0 	0 	0 -2.1806e-13 	2.04443e-33 	4.27162e-14 0 	0 	0 -4.01083e-13 	6.88634e-35 	7.42773e-14 0 	0 	0 -4.86809e-13 	-1.35534e-32 	8.20929e-14 0 	0 	0 -2.02188e-13 	7.45242e-35 	3.12522e-14 0 	0 	0 -3.02306e-13 	4.33584e-33 	4.36163e-14 0 	0 	0 0 	0 	0 0 	0 	0 -2.19225e-13 	-4.23351e-33 	2.51153e-14 0 	0 	0 0 	0 	0 0 	0 	0 3.07949e-13 	0 	-2.67716e-14 0 	0 	0 -2.36865e-13 	0 	1.81459e-14 0 	0 	0 2.88438e-13 	-3.26087e-33 	-1.76758e-14 0 	0 	0 -3.31225e-13 	-3.46044e-33 	1.6708e-14 0 	0 	0 -4.01275e-14 	-3.09633e-35 	1.66177e-15 0 	0 	0 2.74856e-13 	4.70348e-34 	-7.68853e-15 0 	0 	0 -4.78167e-15 	1.92803e-38 	1.01465e-16 0 	0 	0 -1.04563e-14 	0 	1.33922e-16 0 	0 	0 -2.86807e-13 	4.29108e-33 	4.23173e-16 0 	0 	0 2.81055e-13 	-2.61787e-34 	1.63007e-15 0 	0 	0 0 	0 	0 0 	0 	0 -6.11191e-14 	-1.78472e-33 	-1.2506e-15 0 	0 	0 -1.66375e-13 	-3.17009e-34 	-3.9323e-15 0 	0 	0 3.0723e-13 	-1.0077e-32 	9.74979e-15 0 	0 	0
-9.83233e-14 	6.09075e-37 	2.17932e-14 0 	0 	0 -9.89176e-14 	8.7727e-34 	2.0518e-14 0 	0 	0 -2.1806e-13 	2.04443e-33 	4.27162e-14 0 	0 	0 -4.01083e-13 	6.88634e-35 	7.42773e-14 0 	0 	0 -4.86809e-13 	-1.35534e-32 	8.20929e-14 0 	0 	0 -2.02188e-13 	7.45242e-35 	3.12522e-14 0 	0 	0 -3.02306e-13 	4.33584e-33 	4.36163e-14 0 	0 	0 0 	0 	0 0 	0 	0 -2.19225e-13 	-4.23351e-33 	2.51153e-14 0 	0 	0 0 	0 	0 0 	0 	0 3.07949e-13 	0 	-2.67716e-14 0 	0 	0 -2.36865e-13 	0 	1.81459e-14 0 	0 	0 2.88438e-13 	-3.26087e-33 	-1.76758e-14 0 	0 	0 -3.31225e-13 	-3.46044e-33 	1.6708e-14 0 	0 	0 -4.01275e-14 	-3.09633e-35 	1.66177e-15 0 	0 	0 2.74856e-13 	4.70348e-34 	-7.68853e-15 0 	0 	0 -4.78167e-15 	1.92803e-38 	1.01465e-16 0 	0 	0 -1.04563e-14 	0 	1.33922e-16 0 	0 	0 -2.86807e-13 	4.29108e-33 	4.23173e-16 0 	0 	0 2.81055e-13 	-2.61787e-34 	1.63007e-15 0 	0 	0 0 	0 	0 0 	0 	0 -6.11191e-14 	-1.78472e-33 	-1.2506e-15 0 	0 	0 -1.66375e-13 	-3.17009e-34 	-3.9323e-15 0 	0 	0 3.0723e-13 	-1.0077e-32 	9.74979e-15 0 	0 	0 8.87534e-14 	0 	3.39765e-15 0 	0 	0
-8.30908e-13 	7.36907e-33 	1.72351e-13 0 	0 	0 -2.1806e-13 	2.04443e-33 	4.27162e-14 0 	0 	0 -4.01083e-13 	6.88634e-35 	7.42773e-14 0 	0 	0 -4.86809e-13 	-1.35534e-32 	8.20929e-14 0 	0 	0 -2.02188e-13 	7.45242e-35 	3.12522e-14 0 	0 	0 -3.02306e-13 	4.33584e-33 	4.36163e-14 0 	0 	0 0 	0 	0 0 	0 	0 -2.19225e-13 	-4.23351e-33 	2.51153e-14 0 	0 	0 0 	0 	0 0 	0 	0 3.07949e-13 	0 	-2.67716e-14 0 	0 	0 -2.36865e-13 	0 	1.81459e-14 0 	0 	0 2.88438e-13 	-3.26087e-33 	-1.76758e-14 0 	0 	0 -3.31225e-13 	-3.46044e-33 	1.6708e-14 0 	0 	0 -4.01275e-14 	-3.09633e-35 	1.66177e-15 0 	0 	0 2.74856e-13 	4.70348e-34 	-7.68853e-15 0 	0 	0 -4.78167e-15 	1.92803e-38 	1.01465e-16 0 	0 	0 -1.04563e-14 	0 	1.33922e-16 0 	0 	0 -2.86807e-13 	4.29108e-33 	4.23173e-16 0 	0 	0 2.81055e-13 	-2.61787e-34 	1.63007e-15 0 	0 	0 0 	0 	0 0 	0 	0 -6.11191e-14 	-1.78472e-33 	-1.2506e-15 0 	0 	0 -1.66375e-13 	-3.17009e-34 	-3.9323e-15 0 	0 	0 3.0723e-13 	-1.0077e-32 	9.74979e-15 0 	0 	0 8.87534e-14 	0 	3.39765e-15 0 	0 	0 1.31026e-13 	-3.99001e-33 	5.88696e-15 0 	0 	0
-7.1365e-13 	6.69086e-33 	1.39798e-13 0 	0 	0 -4.01083e-13 	6.88634e-35 	7.42773e-14 0 	0 	0 -4.86809e-13 	-1.35534e-32 	8.20929e-14 0 	0 	0 -2.02188e-13 	7.45242e-35 	3.12522e-14 0 	0 	0 -3.02306e-13 	4.33584e-33 	4.36163e-14 0 	0 	0 0 	0 	0 0 	0 	0 -2.19225e-13 	-4.23351e-33 	2.51153e-14 0 	0 	0 0 	0 	0 0 	0 	0 3.07949e-13 	0 	-2.67716e-14 0 	0 	0 -2.36865e-13 	0 	1.81459e-14 0 	0 	0 2.88438e-13 	-3.26087e-33 	-1.76758e-14 0 	0 	0 -3.31225e-13 	-3.46044e-33 	1.6708e-14 0 	0 	0 -4.01275e-14 	-3.09633e-35 	1.66177e-15 0 	0 	0 2.74856e-13 	4.70348e-34 	-7.68853e-15 0 	0 	0 -4.78167e-15 	1.92803e-38 	1.01465e-16 0 	0 	0 -1.04563e-14 	0 	1.33922e-16 0 	0 	0 -2.86807e-13 	4.29108e-33 	4.23173e-16 0 	0 	0 2.81055e-13 	-2.61787e-34 	1.63007e-15 0 	0 	0 0 	0 	0 0 	0 	0 -6.11191e-14 	-1.78472e-33 	-1.2506e-15 0 	0 	0 -1.66375e-13 	-3.17009e-34 	-3.9323e-15 0 	0 	0 3.0723e-13 	-1.0077e-32 	9.74979e-15 0 	0 	0 8.87534e-14 	0 	3.39765e-15 0 	0 	0 1.31026e-13 	-3.99001e-33 	5.88696e-15 0 	0 	0 -3.1146e-13 	8.88921e-33 	-1.49694e-14 0 	0 	0
-5.41461e-13 	9.29656e-35 	1.00274e-13 0 	0 	0 -4.86809e-13 	-1.35534e-32 	8.20929e-14 0 	0 	0 -2.02188e-13 	7.45242e-35 	3.12522e-14 0 	0 	0 -3.02306e-13 	4.33584e-33 	4.36163e-14 0 	0 	0 0 	0 	0 0 	0 	0 -2.19225e-13 	-4.23351e-33 	2.51153e-14 0 	0 	0 0 	0 	0 0 	0 	0 3.07949e-13 	0 	-2.67716e-14 0 	0 	0 -2.36865e-13 	0 	1.81459e-14 0 	0 	0 2.88438e-13 	-3.26087e-33 	-1.76758e-14 0 	0 	0 -3.31225e-13 	-3.46044e-33 	1.6708e-14 0 	0 	0 -4.01275e-14 	-3.09633e-35 	1.66177e-15 0 	0 	0 2.74856e-13 	4.70348e-34 	-7.68853e-15 0 	0 	0 -4.78167e-15 	1.92803e-38 	1.01465e-16 0 	0 	0 -1.04563e-14 	0 	1.33922e-16 0 	0 	0 -2.86807e-13 	4.29108e-33 	4.23173e-16 0 	0 	0 2.81055e-13 	-2.61787e-34 	1.63007e-15 0 	0 	0 0 	0 	0 0 	0 	0 -6.11191e-14 	-1.78472e-33 	-1.2506e-15 0 	0 	0 -1.66375e-13 	-3.17009e-34 	-3.9323e-15 0 	0 	0 3.0723e-13 	-1.0077e-32 	9.74979e-15 0 	0 	0 8.87534e-14 	0 	3.39765e-15 0 	0 	0 1.31026e-13 	-3.99001e-33 	5.88696e-15 0 	0 	0 -3.1146e-13 	8.88921e-33 	-1.49694e-14 0 	0 	0 3.25656e-13 	-9.28159e-33 	1.74251e-14 0 	0 	0
-2.33263e-13 	-6.49435e-33 	3.93362e-14 0 	0 	0 -2.02188e-13 	7.45242e-35 	3.12522e-14 0 	0 	0 -3.02306e-13 	4.33584e-33 	4.36163e-14 0 	0 	0 0 	0 	0 0 	0 	0 -2.19225e-13 	-4.23351e-33 	2.51153e-14 0 	0 	0 0 	0 	0 0 	0 	0 3.07949e-13 	0 	-2.67716e-14 0 	0 	0 -2.36865e-13 	0 	1.81459e-14 0 	0 	0 2.88438e-13 	-3.26087e-33 	-1.76758e-14 0 	0 	0 -3.31225e-13 	-3.46044e-33 	1.6708e-14 0 	0 	0 -4.01275e-14 	-3.09633e-35 	1.66177e-15 0 	0 	0 2.74856e-13 	4.70348e-34 	-7.68853e-15 0 	0 	0 -4.78167e-15 	1.92803e-38 	1.01465e-16 0 	0 	0 -1.04563e-14 	0 	1.33922e-16 0 	0 	0 -2.86807e-13 	4.29108e-33 	4.23173e-16 0 	0 	0 2.81055e-13 	-2.61787e-34 	1.63007e-15 0 	0 	0 0 	0 	0 0 	0 	0 -6.11191e-14 	-1.78472e-33 	-1.2506e-15 0 	0 	0 -1.66375e-13 	-3.17009e-34 	-3.9323e-15 0 	0 	0 3.0723e-13 	-1.0077e-32 	9.74979e-15 0 	0 	0 8.87534e-14 	0 	3.39765e-15 0 	0 	0 1.31026e-13 	-3.99001e-33 	5.88696e-15 0 	0 	0 -3.1146e-13 	8.88921e-33 	-1.49694e-14 0 	0 	0 3.25656e-13 	-9.28159e-33 	1.74251e-14 0 	0 	0 -3.3244e-13 	-1.79688e-32 	-1.93582e-14 0 	0 	0
-3.74048e-13 	1.3787e-34 	5.78166e-14 0 	0 	0 -3.02306e-13 	4.33584e-33 	4.36163e-14 0 	0 	0 0 	0 	0 0 	0 	0 -2.19225e-13 	-4.23351e-33 	2.51153e-14 0 	0 	0 0 	0 	0 0 	0 	0 3.07949e-13 	0 	-2.67716e-14 0 	0 	0 -2.36865e-13 	0 	1.81459e-14 0 	0 	0 2.88438e-13 	-3.26087e-33 	-1.76758e-14 0 	0 	0 -3.31225e-13 	-3.46044e-33 	1.6708e-14 0 	0 	0 -4.01275e-14 	-3.09633e-35 	1.66177e-15 0 	0 	0 2.74856e-13 	4.70348e-34 	-7.68853e-15 0 	0 	0 -4.78167e-15 	1.92803e-38 	1.01465e-16 0 	0 	0 -1.04563e-14 	0 	1.33922e-16 0 	0 	0 -2.86807e-13 	4.29108e-33 	4.23173e-16 0 	0 	0 2.81055e-13 	-2.61787e-34 	1.63007e-15 0 	0 	0 0 	0 	0 0 	0 	0 -6.11191e-14 	-1.78472e-33 	-1.2506e-15 0 	0 	0 -1.66375e-13 	-3.17009e-34 	-3.9323e-15 0 	0 	0 3.0723e-13 	-1.0077e-32 	9.74979e-15 0 	0 	0 8.87534e-14 	0 	3.39765e-15 0 	0 	0 1.31026e-13 	-3.99001e-33 	5.88696e-15 0 	0 	0 -3.1146e-13 	8.88921e-33 	-1.49694e-14 0 	0 	0 3.25656e-13 	-9.28159e-33 	1.74251e-14 0 	0 	0 -3.3244e-13 	-1.79688e-32 	-1.93582e-14 0 	0 	0 -2.16731e-13 	-8.94604e-35 	-1.35366e-14 0 	0 	0
7.25533e-13 	-1.0406e-32 	-1.04679e-13 0 	0 	0 0 	0 	0 0 	0 	0 -2.19225e-13 	-4.23351e-33 	2.51153e-14 0 	0 	0 0 	0 	0 0 	0 	0 3.07949e-13 	0 	-2.67716e-14 0 	0 	0 -2.36865e-13 	0 	1.81459e-14 0 	0 	0 2.88438e-13 	-3.26087e-33 	-1.76758e-14 0 	0 	0 -3.31225e-13 	-3.46044e-33 	1.6708e-14 0 	0 	0 -4.01275e-14 	-3.09633e-35 	1.66177e-15 0 	0 	0 2.74856e-13 	4.70348e-34 	-7.68853e-15 0 	0 	0 -4.78167e-15 	1.92803e-38 	1.01465e-16 0 	0 	0 -1.04563e-14 	0 	1.33922e-16 0 	0 	0 -2.86807e-13 	4.29108e-33 	4.23173e-16 0 	0 	0 2.81055e-13 	-2.61787e-34 	1.63007e-15 0 	0 	0 0 	0 	0 0 	0 	0 -6.11191e-14 	-1.78472e-33 	-1.2506e-15 0 	0 	0 -1.66375e-13 	-3.17009e-34 	-3.9323e-15 0 	0 	0 3.0723e-13 	-1.0077e-32 	9.74979e-15 0 	0 	0 8.87534e-14 	0 	3.39765e-15 0 	0 	0 1.31026e-13 	-3.99001e-33 	5.88696e-15 0 	0 	0 -3.1146e-13 	8.88921e-33 	-1.49694e-14 0 	0 	0 3.25656e-13 	-9.28159e-33 	1.74251e-14 0 	0 	0 -3.3244e-13 	-1.79688e-32 	-1.93582e-14 0 	0 	0 -2.16731e-13 	-8.94604e-35 	-1.35366e-14 0 	0 	0 1.88077e-13 	9.17948e-33 	1.25175e-14 0 	0 	0
0 	0 	0 0 	0 	0 -2.19225e-13 	-4.23351e-33 	2.51153e-14 0 	0 	0 0 	0 	0 0 	0 	0 3.07949e-13 	0 	-2.67716e-14 0 	0 	0 -2.36865e-13 	0 	1.81459e-14 0 	0 	0 2.88438e-13 	-3.26087e-33 	-1.76758e-14 0 	0 	0 -3.31225e-13 	-3.46044e-33 	1.6708e-14 0 	0 	0 -4.01275e-14 	-3.09633e-35 	1.66177e-15 0 	0 	0 2.74856e-13 	4.70348e-34 	-7.68853e-15 0 	0 	0 -4.78167e-15 	1.92803e-38 	1.01465e-16 0 	0 	0 -1.04563e-14 	0 	1.33922e-16 0 	0 	0 -2.86807e-13 	4.29108e-33 	4.23173e-16 0 	0 	0 2.81055e-13 	-2.61787e-34 	1.63007e-15 0 	0 	0 0 	0 	0 0 	0 	0 -6.11191e-14 	-1.78472e-33 	-1.2506e-15 0 	0 	0 -1.66375e-13 	-3.17009e-34 	-3.9323e-15 0 	0 	0 3.0723e-13 	-1.0077e-32 	9.74979e-15 0 	0 	0 8.87534e-14 	0 	3.39765e-15 0 	0 	0 1.31026e-13 	-3.99001e-33 	5.88696e-15 0 	0 	0 -3.1146e-13 	8.88921e-33 	-1.49694e-14 0 	0 	0 3.25656e-13 	-9.28159e-33 	1.74251e-14 0 	0 	0 -3.3244e-13 	-1.79688e-32 	-1.93582e-14 0 	0 	0 -2.16731e-13 	-8.94604e-35 	-1.35366e-14 0 	0 	0 1.88077e-13 	9.17948e-33 	1.25175e-14 0 	0 	0 -2.8929e-14 	-1.3557e-33 	-2.05002e-15 0 	0 	0
-7.17463e-13 	-1.38551e-32 	8.21954e-14 0 	0 	0 0 	0 	0 0 	0 	0 3.07949e-13 	0 	-2.67716e-14 0 	0 	0 -2.36865e-13 	0 	1.81459e-14 0 	0 	0 2.88438e-13 	-3.26087e-33 	-1.76758e-14 0 	0 	0 -3.31225e-13 	-3.46044e-33 	1.6708e-14 0 	0 	0 -4.01275e-14 	-3.09633e-35 	1.66177e-15 0 	0 	0 2.74856e-13 	4.70348e-34 	-7.68853e-15 0 	0 	0 -4.78167e-15 	1.92803e-38 	1.01465e-16 0 	0 	0 -1.04563e-14 	0 	1.33922e-16 0 	0 	0 -2.86807e-13 	4.29108e-33 	4.23173e-16 0 	0 	0 2.81055e-13 	-2.61787e-34 	1.63007e-15 0 	0 	0 0 	0 	0 0 	0 	0 -6.11191e-14 	-1.78472e-33 	-1.2506e-15 0 	0 	0 -1.66375e-13 	-3.17009e-34 	-3.9323e-15 0 	0 	0 3.0723e-13 	-1.0077e-32 	9.74979e-15 0 	0 	0 8.87534e-14 	0 	3.39765e-15 0 	0 	0 1.31026e-13 	-3.99001e-33 	5.88696e-15 0 	0 	0 -3.1146e-13 	8.88921e-33 	-1.49694e-14 0 	0 	0 3.25656e-13 	-9.28159e-33 	1.74251e-14 0 	0 	0 -3.3244e-13 	-1.79688e-32 	-1.93582e-14 0 	0 	0 -2.16731e-13 	-8.94604e-35 	-1.35366e-14 0 	0 	0 1.88077e-13 	9.17948e-33 	1.25175e-14 0 	0 	0 -2.8929e-14 	-1.3557e-33 	-2.05002e-15 0 	0 	0 -2.32048e-13 	1.57275e-34 	-1.70338e-14 0 	0 	0
-6.77635e-13 	-5.11365e-32 	6.91489e-14 0 	0 	0 3.07949e-13 	0 	-2.67716e-14 0 	0 	0 -2.36865e-13 	0 	1.81459e-14 0 	0 	0 2.88438e-13 	-3.26087e-33 	-1.76758e-14 0 	0 	0 -3.31225e-13 	-3.46044e-33 	1.6708e-14 0 	0 	0 -4.01275e-14 	-3.09633e-35 	1.66177e-15 0 	0 	0 2.74856e-13 	4.70348e-34 	-7.68853e-15 0 	0 	0 -4.78167e-15 	1.92803e-38 	1.01465e-16 0 	0 	0 -1.04563e-14 	0 	1.33922e-16 0 	0 	0 -2.86807e-13 	4.29108e-33 	4.23173e-16 0 	0 	0 2.81055e-13 	-2.61787e-34 	1.63007e-15 0 	0 	0 0 	0 	0 0 	0 	0 -6.11191e-14 	-1.78472e-33 	-1.2506e-15 0 	0 	0 -1.66375e-13 	-3.17009e-34 	-3.9323e-15 0 	0 	0 3.0723e-13 	-1.0077e-32 	9.74979e-15 0 	0 	0 8.87534e-14 	0 	3.39765e-15 0 	0 	0 1.31026e-13 	-3.99001e-33 	5.88696e-15 0 	0 	0 -3.1146e-13 	8.88921e-33 	-1.49694e-14 0 	0 	0 3.25656e-13 	-9.28159e-33 	1.74251e-14 0 	0 	0 -3.3244e-13 	-1.79688e-32 	-1.93582e-14 0 	0 	0 -2.16731e-13 	-8.94604e-35 	-1.35366e-14 0 	0 	0 1.88077e-13 	9.17948e-33 	1.25175e-14 0 	0 	0 -2.8929e-14 	-1.3557e-33 	-2.05002e-15 0 	0 	0 -2.32048e-13 	1.57275e-34 	-1.70338e-14 0 	0 	0 0 	0 	0 0 	0 	0