/*--------------------------------*- C++ -*----------------------------------*\
| =========                 |                                                 |
| \\      /  F ield         | OpenFOAM: The Open Source CFD Toolbox           |
|  \\    /   O peration     | Version:  2.3.0                                 |
|   \\  /    A nd           | Web:      www.OpenFOAM.org                      |
|    \\/     M anipulation  |                                                 |
\*---------------------------------------------------------------------------*/
FoamFile
{
    version     2.0;
    format      ascii;
    class       volScalarField;
    location    "200";
    object      omega;
}
// * * * * * * * * * * * * * * * * * * * * * * * * * * * * * * * * * * * * * //

dimensions      [0 0 -1 0 0 0 0];

internalField   nonuniform List<scalar> 
28552
(
5.68006
6.40881
7.21277
8.14229
9.26248
10.6166
12.263
14.2888
16.812
19.993
24.0585
29.3329
36.3003
45.7817
57.6799
72.5713
91.1248
114.166
142.737
178.047
221.904
275.751
344.079
425.576
538.285
661.779
861.983
1038.58
1413.21
1784.9
2607.92
3607.68
4697.3
3415.11
5.82439
6.60605
7.42514
8.36898
9.51664
10.9024
12.5842
14.6515
17.2227
20.4581
24.5849
29.9268
36.9663
46.5215
58.4721
73.3823
91.9071
114.853
143.249
178.26
221.727
274.913
342.592
422.821
534.207
655.859
852.967
1028.23
1397.18
1762.49
2567.2
3567.79
4668.13
3439.17
5.97156
6.81183
7.65046
8.61256
9.79038
11.209
12.9265
15.0351
17.6534
20.9419
25.128
30.5349
37.6438
47.2703
59.274
74.2082
92.7182
115.594
143.858
178.627
221.796
274.425
341.621
420.782
531.194
651.209
846.274
1020.03
1386.22
1745.77
2553.91
3547.92
4622.2
3485.75
6.12027
7.02356
7.87943
8.86142
10.0697
11.5213
13.2754
15.4261
18.0921
21.4345
25.6813
31.1553
38.3361
48.038
60.1051
75.0809
93.6042
116.451
144.646
179.257
222.256
274.478
341.42
419.766
529.719
648.33
842.691
1014.73
1381.2
1736.79
2545.97
3541.95
4558.53
3546.37
6.25675
7.21715
8.08609
9.0878
10.3231
11.8032
13.5894
15.7768
18.4836
21.8712
26.1679
31.6957
38.9327
48.6908
60.7988
75.7907
94.299
117.084
145.173
179.578
222.349
274.098
340.66
418.099
527.29
644.337
837.2
1007.54
1371.93
1723.21
2526.81
3517.93
4490.71
3621.5
6.39083
7.41364
8.28745
9.30899
10.5712
12.0785
13.8958
16.1187
18.8649
22.2961
26.6408
32.2204
39.5114
49.3233
61.4719
76.482
94.9814
117.714
145.716
179.937
222.522
273.842
340.093
416.694
525.304
640.81
832.712
1001.21
1364.74
1712.2
2510.9
3499.73
4425.19
3718.25
6.49957
7.60025
8.47708
9.51797
10.8053
12.3374
14.1832
16.4387
19.2204
22.6906
27.0775
32.7018
40.0383
49.8933
62.0704
77.0856
95.5627
118.228
146.127
180.146
222.524
273.396
339.293
415.034
522.985
636.912
827.615
994.451
1356.05
1699.92
2489.95
3473.02
4359.47
3848.43
6.56161
7.76458
8.65354
9.71473
11.0261
12.5813
14.4534
16.7382
19.5518
23.0564
27.4799
33.1421
40.5154
50.4026
62.5951
77.6004
96.0382
118.615
146.387
180.173
222.303
272.682
338.143
412.962
520.078
632.352
821.391
986.7
1344.96
1685.16
2463.53
3438.82
4293.11
4026.5
6.60871
7.917
8.82086
9.90164
11.2356
12.8121
14.7087
17.0209
19.864
23.4005
27.8579
33.5549
40.9621
50.8786
63.0857
78.0828
96.4873
118.986
146.65
180.228
222.154
272.094
337.212
411.201
517.725
628.487
816.415
980.526
1336.38
1674.51
2440.06
3412.28
4211.17
4281.13
6.67432
8.05312
8.97253
10.073
11.4256
13.0207
14.9388
17.2745
20.1428
23.7061
28.1912
33.9157
41.3482
51.2838
63.4943
78.4714
96.8312
119.239
146.784
180.142
221.847
271.337
336.083
409.229
515.112
624.378
811.03
974.025
1326.72
1662.57
2413.11
3381.79
4119.62
4686.31
6.75938
8.20019
9.12335
10.2463
11.6168
13.2302
15.17
17.5292
20.4227
24.013
28.5261
34.2788
41.7379
51.6946
63.9127
78.8766
97.2023
119.532
146.98
180.141
221.659
270.731
335.171
407.496
512.882
620.63
806.379
968.095
1318.4
1651.62
2388.11
3343.93
4048.28
5423.75
6.83417
8.31743
9.24817
10.392
11.7747
13.4013
15.3565
17.7312
20.6403
24.2452
28.7707
34.5314
41.9904
51.9324
64.11
78.9991
97.2124
119.366
146.582
179.385
220.476
268.88
332.526
403.689
507.485
613.402
795.687
956.041
1298.55
1626.31
2343.75
3275.7
4035.12
7259.93
6.90916
8.43535
9.36865
10.5344
11.9283
13.5678
15.5386
17.9292
20.8545
24.4755
29.0156
34.7877
42.2527
52.1893
64.3429
79.1818
97.3192
119.347
146.411
178.961
219.789
267.722
330.944
401.272
504.332
608.918
789.605
949.335
1287.57
1613.96
2313.75
3245.61
4040.22
11031.9
6.98341
8.55038
9.48408
10.6724
12.0761
13.728
15.7141
18.1205
21.0622
24.6998
29.2555
35.0412
42.5157
52.4532
64.5937
79.3989
97.4849
119.421
146.378
178.732
219.377
266.925
329.845
399.457
501.931
605.405
784.576
944.154
1277.87
1603.47
2283.13
3208.62
4341.16
16357.6
7.05303
8.65026
9.58723
10.7964
12.2065
13.8673
15.8645
18.2818
21.2339
24.8801
29.4412
35.2271
42.6928
52.6057
64.6978
79.4218
97.3926
119.152
145.884
177.895
218.129
265.053
327.231
395.78
496.794
598.691
774.706
932.965
1259.63
1579.62
2238.87
3132.67
5178.34
22881.8
7.11938
8.73765
9.68163
10.9108
12.3258
13.9938
16.0004
18.4269
21.3875
25.0403
29.6047
35.3883
42.8431
52.7298
64.7746
79.4224
97.2892
118.893
145.435
177.158
217.069
263.482
325.099
392.777
492.701
593.37
766.994
924.639
1245.36
1562.8
2201.52
3104.68
6892.26
29905.5
7.18701
8.82768
9.77655
11.0273
12.4473
14.1231
16.14
18.5775
21.5494
25.2124
29.7851
35.5735
43.0278
52.9035
64.9238
79.5263
97.3314
118.834
145.258
176.78
216.485
262.52
323.766
390.781
489.907
589.727
761.292
918.971
1233.71
1549.95
2169.88
3163.84
9348.84
36477.7
7.25009
8.90102
9.86084
11.1316
12.5547
14.2356
16.2592
18.7039
21.6823
25.3495
29.9225
35.7051
43.144
52.9878
64.9546
79.4736
97.1657
118.503
144.72
175.937
215.279
260.783
321.369
387.505
485.277
583.901
752.517
909.331
1217.05
1528.66
2125.68
3251.67
11998.8
42051.7
7.31103
8.96714
9.94083
11.2323
12.6592
14.3457
16.3767
18.8304
21.8182
25.4938
30.0733
35.8594
43.2971
53.1305
65.0771
79.5591
97.2034
118.461
144.591
175.652
214.845
260.058
320.39
386.014
483.244
581.442
748.926
907.056
1208.36
1521.85
2109.37
3673.63
14614.2
45860.7
7.3708
9.02778
10.0159
11.3265
12.7554
14.4443
16.4786
18.9365
21.9277
25.6038
30.1792
35.9541
43.3703
53.1642
65.0481
79.4355
96.9515
118.026
143.917
174.644
213.402
258.04
317.552
382.251
477.811
574.69
738.582
894.872
1188.13
1493.73
2061.91
3877.35
16300.4
48474.4
7.42882
9.08325
10.088
11.4187
12.8507
14.5434
16.5826
19.0477
22.0467
25.7297
30.3105
36.0883
43.504
53.2906
65.1612
79.5237
97.0101
118.032
143.874
174.499
213.178
257.622
317.012
381.616
476.98
574.146
736.191
895.311
1181.33
1492.16
2095.44
4570.01
17886.9
49748.8
7.48618
9.13647
10.1579
11.5083
12.9431
14.6382
16.6808
19.1515
22.1563
25.8438
30.4269
36.2033
43.6126
53.383
65.227
79.5455
96.9726
117.904
143.628
174.075
212.525
256.641
315.574
379.626
473.965
570.338
729.94
887.431
1167.08
1471.07
2088.12
5029.63
18699.6
50333.1
7.5424
9.18639
10.2251
11.5943
13.0316
14.7282
16.7726
19.2472
22.2561
25.9458
30.5282
36.2991
43.6965
53.4435
65.25
79.5107
96.8597
117.677
143.255
173.493
211.67
255.416
313.831
377.278
470.547
566.026
723.23
879.338
1152.45
1450.89
2087.92
5476.25
19268.4
50459.2
7.59395
9.22448
10.2845
11.6725
13.1137
14.8121
16.8591
19.3394
22.3551
26.0513
30.6394
36.4146
43.8151
53.5613
65.3658
79.6187
96.9601
117.758
143.321
173.514
211.77
255.523
313.848
377.435
470.124
566.472
721.167
879.742
1146.22
1452.21
2192.93
6181.25
19977.4
50064.6
7.64289
9.25417
10.3369
11.742
13.1868
14.8847
16.9314
19.4136
22.4314
26.1283
30.7144
36.4833
43.8723
53.5967
65.3678
79.57
96.8417
117.54
142.966
172.974
210.957
254.385
312.159
375.21
466.729
562.205
714.271
870.079
1130.79
1428.24
2207.24
6600.91
20363
49530.2
7.69361
9.29166
10.394
11.817
13.2658
14.9638
17.0112
19.4965
22.5183
26.2179
30.8047
36.5709
43.953
53.6622
65.4086
79.5721
96.7904
117.412
142.732
172.596
210.373
253.543
310.917
373.534
464.21
559.044
708.853
863.729
1119.2
1417.05
2285.21
7155.28
20937
48895
7.74206
9.3254
10.4483
11.8891
13.3432
15.0416
17.0905
19.5804
22.6082
26.3136
30.9055
36.6755
44.0607
53.7695
65.514
79.6707
96.8788
117.48
142.772
172.619
210.379
253.504
310.668
373.31
463.266
558.433
705.853
861.59
1111.02
1419.88
2440.59
7876.62
21742.5
48126.9
7.79003
9.36052
10.5026
11.9607
13.4201
15.1182
17.1682
19.6618
22.6945
26.4042
30.9992
36.7702
44.1541
53.856
65.5876
79.7217
96.8949
117.445
142.655
172.397
209.973
252.903
309.667
371.969
461.004
555.563
700.912
855.501
1099.06
1411.18
2563.38
8492.23
22570.9
47395.7
7.83727
9.3974
10.5581
12.0338
13.4994
15.198
17.2508
19.7501
22.7905
26.5083
31.1114
36.8905
44.2833
53.9927
65.7329
79.8895
97.0918
117.663
142.885
172.664
210.214
253.234
309.817
372.415
460.779
556.114
699.358
855.171
1094.93
1438.51
2854.82
9358.16
23832.4
46590.6
7.88213
9.43059
10.6096
12.1018
13.5739
15.2718
17.3265
19.8298
22.8762
26.5996
31.2077
36.9909
44.3868
54.0958
65.8328
79.9813
97.1668
117.714
142.92
172.657
210.085
253.029
309.281
371.785
459.279
554.466
695.471
850.442
1085.75
1447.28
3096.99
10184.4
25361.9
45760.1
7.92561
9.46311
10.6592
12.1667
13.6449
15.3409
17.396
19.9013
22.9511
26.6767
31.2852
37.0659
44.4557
54.1513
65.8651
79.9788
97.1091
117.584
142.671
172.27
209.448
252.14
307.882
369.934
456.36
550.635
689.212
841.413
1071.52
1435.93
3283.78
10963.8
26982.5
45136.2
7.96942
9.50096
10.7125
12.236
13.721
15.4157
17.4736
19.9832
23.0395
26.7713
31.3856
37.1715
44.5658
54.263
65.9756
80.0885
97.2197
117.685
142.738
172.313
209.39
252.046
307.518
369.555
455.246
549.522
686.06
837.94
1065.51
1472.59
3657.32
12026.6
28896.2
44642.4
8.01369
9.54455
10.7695
12.3094
13.8009
15.4945
17.5563
20.071
23.1352
26.8745
31.4965
37.2901
44.698
54.4054
66.1258
80.2469
97.3769
117.847
142.87
172.443
209.41
252.056
307.211
369.249
454.099
548.31
682.683
833.998
1059.62
1516.62
4078.2
13149.6
30887.4
44246.6
8.05634
9.58776
10.8254
12.3815
13.8799
15.5725
17.639
20.1595
23.2328
26.9841
31.6191
37.4262
44.8506
54.5719
66.3098
80.4533
97.597
118.096
143.11
172.724
209.605
252.316
307.18
369.354
453.401
547.742
680.087
831.164
1058.18
1595.08
4619.3
14358.5
32112.5
43877.1
8.09848
9.63332
10.8818
12.4535
13.9581
15.6487
17.7196
20.2445
23.3252
27.083
31.7266
37.5413
44.9721
54.696
66.4318
80.5709
97.6916
118.168
143.11
172.668
209.367
251.956
306.406
368.326
451.438
545.148
675.346
824.743
1049.65
1644.64
5077.24
15278.3
32595.8
43704.7
8.14095
9.68443
10.9417
12.5309
14.0416
15.7311
17.8085
20.3398
23.4308
27.1984
31.8531
37.6802
45.1248
54.857
66.6028
80.7552
97.8742
118.362
143.269
172.837
209.418
252.006
306.143
368.052
450.382
543.911
672.208
821.047
1050.19
1756.86
5664.88
16128.1
32601
43693.6
8.18617
9.74005
11.0056
12.6105
14.1273
15.8163
17.9012
20.4394
23.5415
27.3197
31.9867
37.8277
45.2881
55.0293
66.7879
80.9579
98.0791
118.585
143.461
173.046
209.506
252.1
305.906
367.791
449.29
542.56
668.903
817.085
1052.24
1888.55
6249.63
16769.6
32271.7
43790.7
8.23488
9.79826
11.072
12.6917
14.2145
15.9037
17.9969
20.5425
23.6564
27.4458
32.1261
37.9825
45.4601
55.2112
66.9842
81.1745
98.2984
118.825
143.667
173.269
209.6
252.194
305.658
367.493
448.167
541.113
665.588
813.213
1057.96
2051.31
6835.04
17244
31684.5
43957.2
8.28442
9.85709
11.1385
12.7725
14.3009
15.9909
18.0927
20.6456
23.7716
27.5725
32.2665
38.1386
45.6338
55.3948
67.1825
81.3939
98.5206
119.069
143.879
173.504
209.713
252.313
305.457
367.253
447.15
539.789
662.517
810.03
1070.35
2254.34
7411.8
17545.4
30914.7
44164.7
8.34223
9.92263
11.2123
12.8596
14.3937
16.0862
18.1982
20.7605
23.9005
27.7153
32.4262
38.3185
45.8367
55.6115
67.4224
81.6666
98.8097
119.399
144.197
173.874
209.988
252.637
305.493
367.31
446.468
538.87
659.984
808.194
1093.83
2507.2
7985.73
17717.6
30021
44351.6
8.4062
9.99292
11.2908
12.9502
14.4893
16.1853
18.3077
20.8792
24.0331
27.8612
32.5881
38.4989
46.037
55.8212
67.6483
81.9156
99.06
119.67
144.427
174.115
210.087
252.705
305.206
366.884
445.228
537.11
656.527
804.837
1114.98
2758.82
8482.23
17686.7
29085.8
44576.8
8.47152
10.0647
11.3708
13.0422
14.5863
16.2874
18.4216
21.0043
24.1743
28.0188
32.7661
38.7016
46.2681
56.0705
67.9298
82.2423
99.4176
120.089
144.86
174.632
210.558
253.279
305.583
367.371
445.144
536.947
655.274
807.67
1175.13
3126.04
9031.19
17591.4
28198.6
44710.7
8.54456
10.1425
11.457
13.1387
14.6872
16.3943
18.5403
21.134
24.3194
28.1791
32.945
38.9022
46.4918
56.3059
68.1866
82.5288
99.7126
120.414
145.154
174.947
210.746
253.441
305.411
367.046
444.041
535.277
652.142
806.388
1221.09
3443.48
9449.02
17328.1
27275.7
44833
8.62859
10.2293
11.553
13.2435
14.7961
16.5115
18.6704
21.2769
24.4791
28.3557
33.1421
39.1233
46.738
56.5643
68.4684
82.8424
100.036
120.767
145.477
175.288
210.965
253.628
305.289
366.766
443.055
533.759
649.405
807.418
1287.61
3801.48
9844.58
16963.7
26406.1
44961.9
8.71842
10.3214
11.6551
13.3537
14.9108
16.6371
18.8109
21.433
24.6551
28.5529
33.3657
39.3787
47.0288
56.8776
68.8243
83.2549
100.492
121.296
146.036
175.939
211.591
254.347
305.847
367.38
443.168
533.712
649.007
818.253
1410.36
4257.36
10306.9
16673.2
25636.2
45018.7
8.81032
10.4152
11.7583
13.4641
15.025
16.7624
18.9502
21.5872
24.8277
28.7449
33.581
39.6217
47.3006
57.1654
69.1424
83.613
100.869
121.715
146.437
176.369
211.911
254.64
305.833
367.188
442.256
532.219
646.639
823.884
1520.06
4662.91
10602.2
16330
24883.1
45045.4
8.91141
10.5172
11.8706
13.5824
15.1476
16.899
19.1028
21.7575
25.0192
28.9596
33.8241
39.8989
47.6143
57.5026
69.5239
84.0519
101.351
122.264
147.008
177.012
212.509
255.284
306.283
367.595
442.138
531.834
646.568
842.34
1692.61
5123.32
10833.4
16018.2
24204.8
45041.4
9.01089
10.6186
11.9821
13.7002
15.2703
17.0372
19.2581
21.9324
25.2174
29.1843
34.0816
40.1967
47.9568
57.8788
69.9617
84.5693
101.943
122.964
147.788
177.934
213.486
256.424
307.385
368.849
443.103
532.993
650.466
882.901
1944.81
5629.78
11016.9
15759.3
23683.9
44933
9.11111
10.7208
12.0935
13.8174
15.392
17.1743
19.4115
22.1047
25.4115
29.4029
34.3301
40.4814
48.2798
58.2293
70.3622
85.0337
102.46
123.559
148.424
178.653
214.187
257.18
307.981
369.392
443.178
532.934
652.914
921.713
2188.3
6061.54
11108.7
15466.6
23098.3
44731.2
9.22787
10.8369
12.2203
13.9474
15.5273
17.3279
19.5827
22.2968
25.6268
29.6444
34.6032
40.7916
48.6278
58.6026
70.783
85.5124
102.983
124.145
149.033
179.314
214.808
257.801
308.424
369.701
443.035
532.658
656.244
970.228
2451.86
6458.83
11117.1
15151.8
22571.6
44557.4
9.35791
10.9644
12.3593
14.0879
15.6739
17.4948
19.7685
22.505
25.859
29.9042
34.8952
41.121
48.9938
58.9912
71.2158
85.9966
103.504
124.713
149.609
179.914
215.344
258.287
308.693
369.75
442.568
531.966
659.537
1023.24
2713.31
6809.78
11061.7
14815.2
21994.8
44459.7
9.48873
11.0929
12.4985
14.2283
15.8207
17.662
19.9539
22.7124
26.0893
30.1606
35.1817
41.4417
49.3459
59.3613
71.6208
86.4411
103.967
125.203
150.078
180.37
215.688
258.519
308.633
369.366
441.561
530.546
661.545
1075.84
2958.76
7067.68
10927.2
14450.7
21478.4
44446.6
9.63143
11.2331
12.6512
14.3819
15.9839
17.8506
20.1656
22.9526
26.3599
30.4677
35.5325
41.8445
49.803
59.8622
72.2019
87.1171
104.742
126.096
151.085
181.516
216.941
259.909
310.075
370.905
443.099
533.699
681.554
1207.71
3326.08
7356.17
10849.8
14212.8
21204.4
44360.4
9.79077
11.3881
12.8197
14.5498
16.1635
18.0581
20.3981
23.2163
26.656
30.8031
35.914
42.2801
50.2933
60.3964
72.8157
87.8217
105.536
126.992
152.067
182.595
218.055
261.066
311.138
371.872
443.838
535.801
699.974
1332.43
3644.13
7561.43
10741.8
13933.8
20830.9
44163.5
9.94769
11.5444
12.9888
14.7191
16.3462
18.2698
20.636
23.4868
26.9605
31.1492
36.309
42.7324
50.8039
60.9566
73.4628
88.5676
106.382
127.951
153.128
183.767
219.294
262.373
312.417
373.124
445.127
539.85
729.612
1494.55
3974.96
7735.26
10637.4
13695.1
20541.8
43968.5
10.1058
11.7068
13.1645
14.8956
16.5386
18.4933
20.8879
23.774
27.2848
31.5192
36.7327
43.2189
51.3547
61.5653
74.1704
89.3871
107.32
129.02
154.329
185.105
220.745
263.932
314.016
374.776
447.15
546.661
773.156
1689.64
4305.27
7877.58
10536.6
13482.3
20285.8
43731.5
10.2841
11.888
13.3599
15.0912
16.7537
18.7426
21.1689
24.0939
27.6452
31.9295
37.201
43.7539
51.9567
62.2275
74.9349
90.263
108.312
130.134
155.56
186.446
222.16
265.395
315.445
376.165
448.947
554.063
821.305
1885.9
4597.2
7972.57
10418.8
13249.8
19965.9
43485.2
10.4707
12.0766
13.5626
15.2953
16.9802
19.0052
21.4654
24.4318
28.0268
32.3649
37.6987
44.3228
52.5975
62.9356
75.7543
91.2032
109.38
131.334
156.896
187.904
223.717
267.019
317.086
377.855
451.549
565.283
886.641
2109.82
4885.13
8035.15
10294
13038.2
19709.5
43274.2
10.6649
12.2722
13.7725
15.5085
17.219
19.2826
21.7798
24.7914
28.4344
32.8321
38.235
44.9385
53.2944
63.713
76.6619
92.2525
110.586
132.703
158.418
189.615
225.597
269.032
319.22
380.246
455.837
583.505
977.737
2368.33
5176.49
8077.52
10179.2
12863.4
19515.6
43027.7
10.8808
12.487
14.0028
15.7434
17.4844
19.5903
22.1291
25.1907
28.8876
33.3518
38.8317
45.6226
54.0685
64.5783
77.6719
93.418
111.924
134.214
160.122
191.467
227.551
271.193
321.522
382.908
461.283
607.376
1086.02
2635.41
5437.67
8090.68
10060.5
12686.5
19298.5
42741.6
11.1092
12.7136
14.2456
15.9939
17.7698
19.9215
22.5064
25.6233
29.3805
33.9196
39.4863
46.3758
54.9252
65.5447
78.8087
94.7387
113.455
135.956
162.112
193.668
229.938
273.766
324.331
386.665
469.972
644.707
1230.42
2931.69
5676.29
8101.33
9961.02
12553.3
19149.7
42434.6
11.3498
12.9493
14.4988
16.2578
18.0724
20.2724
22.9071
26.0834
29.9064
34.5265
40.1871
47.1831
55.8455
66.5882
80.0389
96.1693
115.114
137.845
164.268
196.048
232.572
276.581
327.448
391.017
481.606
693.315
1395.71
3223.07
5876.97
8098.68
9857.5
12417.3
18974.4
42077.5
11.6061
13.2022
14.7709
16.5447
18.4035
20.6564
23.3471
26.5899
30.4876
35.1999
40.9676
48.0853
56.8795
67.7708
81.4428
97.8124
117.035
140.045
166.801
198.871
235.765
280.085
331.552
397.431
500.137
764.061
1599.53
3526.97
6060.91
8099.27
9771.27
12318.1
18851.4
41680
11.8795
13.474
15.0643
16.8575
18.7662
21.0768
23.8299
27.1469
31.129
35.9451
41.8338
49.0895
58.0359
69.1038
83.0343
99.6847
119.235
142.579
169.731
202.156
239.504
284.268
336.808
406.65
527.943
860.009
1835.3
3831.49
6223.99
8098.96
9694.29
12233.2
18733
41219
12.1622
13.7579
15.3722
17.1902
19.1536
21.5263
24.3486
27.7473
31.8241
36.7569
42.7823
50.1952
59.3199
70.6013
84.8399
101.83
121.782
145.545
173.195
206.093
244.054
289.54
344.006
421.029
571.751
993.582
2113.59
4145.75
6379.95
8110.23
9643.52
12191.7
18668
40668.9
12.4606
14.0604
15.7022
17.5511
19.5753
22.0159
24.9154
28.4058
32.5903
37.6558
43.8379
51.4332
60.77
72.3132
86.9259
104.337
124.793
149.095
177.394
210.945
249.789
296.556
354.741
445.154
642.785
1180.66
2443.34
4470.43
6536.4
8139.35
9625.29
12197.2
18656.2
39983.5
12.773
14.3797
16.0515
17.9358
20.0238
22.5354
25.5168
29.1042
33.4039
38.6108
44.9608
52.753
62.324
74.1638
89.1989
107.095
128.141
153.095
182.19
216.602
256.697
305.667
370.465
482.839
745.248
1412.37
2796.68
4789.06
6712.78
8216.45
9676.23
12292.1
18695.7
39152.5
13.041
14.6561
16.3557
18.2739
20.4188
22.9935
26.0491
29.7245
34.1298
39.4667
45.9723
53.9496
63.7461
75.8783
91.3301
109.718
131.372
157.021
186.989
222.429
264.168
316.56
391.79
536.254
880.467
1683.1
3164.67
5103.78
6905.35
8333.28
9796.85
12475.8
18897.6
38308.7
13.2709
14.8955
16.6205
18.5702
20.7649
23.3955
26.5173
30.2718
34.7727
40.2275
46.8753
55.0239
65.033
77.4461
93.2991
112.171
134.435
160.808
191.711
228.366
272.266
329.711
419.945
606.184
1042.26
1975.51
3543.78
5469.47
7197.66
8572.89
10122.5
12999.3
19442.1
36978.4
5.51306
6.18629
6.96789
7.87718
8.96694
10.2866
11.8952
13.8777
16.3514
19.4769
23.4806
28.6881
35.5857
44.9996
56.8615
71.7517
90.3507
113.5
142.255
177.866
222.117
276.613
345.591
428.352
542.31
667.578
870.794
1048.39
1430.27
1805.77
2650.18
3650.12
4750.51
3277.32
5.68117
6.37038
7.16176
8.08223
9.18736
10.5255
12.155
14.1608
16.6599
19.8121
23.8429
29.076
35.9945
45.4163
57.2715
72.1328
90.6758
113.734
142.341
177.737
221.632
275.697
343.77
425.88
537.19
658.77
857.75
1025.1
1400.84
1748.58
2589.18
3567.62
4861.38
3012
5.85859
6.56121
7.36672
8.30253
9.42416
10.7799
12.4279
14.4527
16.9705
20.1401
24.1852
29.427
36.3439
45.7418
57.5518
72.3486
90.7988
113.722
142.13
177.248
220.715
274.243
341.301
422.574
531.046
649.321
845.182
998.407
1371.38
1678.42
2517.47
3438.7
5005.53
2756.93
6.0168
6.73339
7.55264
8.50207
9.63746
11.0079
12.6714
14.7119
17.2449
20.4282
24.4843
29.7316
36.6439
46.018
57.7915
72.5321
90.8982
113.705
141.957
176.87
220.036
273.203
339.559
420.327
526.76
646.357
838.555
983.422
1350.09
1637.2
2474.12
3337.06
5093.34
2560.73
6.18929
6.91247
7.74085
8.70194
9.84974
11.2326
12.9084
14.9601
17.5022
20.691
24.7468
29.9844
36.8714
46.1913
57.886
72.5199
90.7525
113.395
141.438
176.09
218.9
271.64
337.256
417.435
521.841
641.536
828.639
968.714
1326.92
1592.39
2417.98
3213.86
5182.06
2366.44
6.34132
7.0701
7.90694
8.87839
10.0351
11.4253
13.1069
15.1623
17.7045
20.888
24.9302
30.1418
36.9829
46.2221
57.8137
72.3222
90.4004
112.853
140.671
175.067
217.568
269.975
335.067
414.935
517.988
638.138
820.557
966.85
1319.74
1572.07
2392.54
3134.59
5164.81
2206.33
6.4967
7.22822
8.06979
9.0475
10.2094
11.6035
13.2873
15.3416
17.8773
21.0466
25.0636
30.2335
37.0069
46.1341
57.5791
71.9007
89.752
111.943
139.469
173.543
215.676
267.692
332.267
411.831
513.74
634.486
813.239
967.669
1320.1
1568.18
2378.56
3095.73
5169.11
2084.9
6.62356
7.35297
8.19497
9.17515
10.3371
11.7272
13.4023
15.4413
17.953
21.0862
25.0494
30.1392
36.7925
45.7347
56.9426
70.9728
88.4734
110.241
137.261
170.742
212.186
263.438
327.09
405.841
506.07
626.882
800.445
966.215
1317.41
1549.19
2353.91
3012.71
5264.5
1981.4
6.73057
7.45515
8.29378
9.27077
10.4254
11.8023
13.458
15.4695
17.9419
21.0189
24.9014
29.8748
36.3589
45.0488
55.9302
69.5442
86.5216
107.655
133.93
166.55
206.995
257.113
319.424
396.782
494.79
614.774
781.602
959.701
1306.85
1512.94
2311.97
2862.1
5395.4
1836.81
6.81388
7.53081
8.3616
9.33009
10.4714
11.8288
13.4573
15.4313
17.8512
20.8547
24.6338
29.4609
35.7363
44.1192
54.6057
67.7261
84.1045
104.526
129.959
161.59
200.884
249.709
310.563
386.43
482.431
601.415
763.417
945.655
1288.22
1503.82
2289.09
2770.84
5399.98
1723.92
6.87186
7.5773
8.39546
9.35015
10.4725
11.8028
13.3945
15.3187
17.6708
20.5811
24.2314
28.879
34.901
42.9155
52.9277
65.4491
81.0831
100.585
124.9
155.204
192.979
240.117
299.087
372.942
466.48
583.662
740.759
926.121
1246.25
1492.69
2273.6
2681.02
5443.76
1592.61
6.90266
7.59387
8.39513
9.33037
10.4268
11.7224
13.2679
15.1308
17.4003
20.1986
23.6954
28.1309
33.8557
41.4411
50.8997
62.7185
77.4772
95.9079
118.935
147.714
183.723
228.846
285.531
356.921
447.651
562.578
715.303
902.287
1205.99
1477.03
2293.17
2642.09
5451.99
1501.51
6.89876
7.572
8.3516
9.2614
10.3253
11.5776
13.0663
14.8543
17.0243
19.689
23.0051
27.1928
32.5726
39.6631
48.4807
59.4799
73.2057
90.3489
111.792
138.658
172.381
214.818
268.388
336.269
422.963
533.894
680.837
866.759
1154.25
1447.34
2269.06
2584.35
5505.78
1369.79
6.85738
7.51159
8.26667
9.14589
10.1705
11.3716
12.7935
14.4943
16.5497
19.0626
22.1749
26.0852
31.0818
37.6263
45.7376
55.8309
68.4089
84.1137
103.773
128.455
159.538
198.826
248.704
312.364
394.291
500.441
641.633
825.258
1099.1
1409.76
2177.58
2551.64
5572.14
1260.18
6.79762
7.42882
8.1549
8.99827
9.97822
11.1228
12.4723
14.0796
16.0132
18.3653
21.2624
24.8814
29.4768
35.4521
42.827
51.9733
63.3456
77.5273
95.2771
117.584
145.745
181.478
227.107
285.803
362.021
461.943
595.467
773.143
1031.98
1354.97
2047.54
2520.42
5612.5
1155.41
6.68659
7.29359
7.9886
8.79274
9.72353
10.8059
12.076
13.581
15.3818
17.5601
20.2263
23.534
27.7026
33.0765
39.6743
47.8197
57.9119
70.4655
86.1555
105.872
130.797
162.524
203.227
255.926
324.908
416.315
539.631
707.64
950.735
1277.35
1901.86
2478.76
5528.11
1018.74
6.57179
7.1519
7.81303
8.57445
9.45222
10.4685
11.6551
13.0536
14.7175
16.7172
19.1484
22.1423
25.8851
30.6652
36.5005
43.6672
52.5086
63.4693
77.1362
94.2913
115.989
143.669
179.337
225.827
287.238
369.607
482.177
638.817
865.319
1188.04
1758.08
2431.45
5241
891.768
6.41082
6.9652
7.59333
8.31324
9.13917
10.0907
11.1956
12.4902
14.0206
15.8476
18.0528
20.7469
24.0857
28.3068
33.4295
39.6864
47.3692
56.8571
68.653
83.4328
102.116
125.976
156.807
197.192
250.929
323.758
424.559
567.43
776.565
1088.73
1609.32
2363.79
4732.92
769.656
6.30738
6.83063
7.42119
8.09411
8.86288
9.74479
10.7639
11.9514
13.3469
15.0021
16.9855
19.3892
22.341
26.0328
30.4864
35.8947
42.5016
50.6246
60.6869
73.2594
89.1221
109.364
135.541
169.93
215.943
278.846
366.865
493.206
681.21
973.983
1452.61
2267.51
4176.14
631.056
6.05238
6.54706
7.10355
7.73492
8.45331
9.27376
10.2167
11.3085
12.5824
14.0814
15.8623
18.0003
20.5975
23.8048
27.6472
32.2827
37.9125
44.8004
53.2996
63.8904
77.1518
93.912
115.392
143.381
180.586
231.239
302.312
405.983
563.006
812.468
1235.43
2018.59
3711.77
527.808
5.89147
6.3604
6.88357
7.47131
8.13462
8.88669
9.74421
10.7282
11.8652
13.1903
14.7493
16.6007
18.8229
21.5297
24.7407
28.5734
33.1756
38.7391
45.517
53.8505
64.287
77.5797
94.7813
117.451
147.969
190.11
250.095
338.747
475.813
700.08
1093.4
1855.11
3475.64
445.992
5.95931
6.42044
6.93607
7.51537
8.16852
8.90813
9.75294
10.7198
11.8335
13.1219
14.6276
16.4035
18.5187
21.0705
24.0974
27.7139
32.0672
37.3495
43.8162
51.8122
61.8171
74.5108
90.8727
112.354
141.18
180.9
237.413
321.131
451.344
668.119
1055.89
1858.69
3585.47
353.432
5.46923
5.86817
6.3096
6.80127
7.35182
7.96239
8.61511
9.36563
10.2336
11.2809
12.498
13.9176
15.587
17.5717
19.9155
22.7058
26.0558
30.1147
35.084
41.2402
48.9688
58.8265
71.6313
88.6116
111.684
143.949
190.652
261.171
373.433
564.91
921.181
1682.84
3494.23
310.287
5.55958
5.94908
6.36214
6.80204
7.27408
7.78179
8.3208
8.90818
9.57413
10.3496
11.261
12.3418
13.6346
15.1986
17.0948
19.4077
22.2527
25.7862
30.22
35.8455
43.0702
52.3227
64.2319
79.8746
100.948
130.22
172.422
236.124
338.023
513.157
848.332
1563.01
3628.29
277.552
0.254686
0.254626
0.254566
0.254507
0.254448
0.254391
0.254334
0.254277
0.254222
0.254167
0.254113
0.25406
0.254008
0.253957
0.253907
0.253858
0.253811
0.253767
0.253726
0.25369
0.253661
0.253646
0.253657
0.253717
0.253856
0.254123
0.254615
0.255497
0.257003
0.259489
0.263559
0.270196
0.280958
0.298247
0.325663
0.368356
0.433365
0.529665
0.667884
0.859319
1.11459
1.44138
1.8422
2.30868
2.81852
3.35615
3.89479
4.46616
4.99495
0.254687
0.254627
0.254568
0.254509
0.254451
0.254393
0.254336
0.25428
0.254225
0.25417
0.254116
0.254063
0.254011
0.25396
0.25391
0.253861
0.253815
0.25377
0.253729
0.253692
0.253664
0.253649
0.253659
0.253719
0.253857
0.254123
0.254616
0.255499
0.257008
0.2595
0.263583
0.270243
0.281047
0.298407
0.32595
0.368881
0.43434
0.531493
0.671339
0.865767
1.12616
1.46125
1.87429
2.35714
2.88671
3.44764
4.00921
4.60119
5.14174
0.254688
0.254628
0.254569
0.25451
0.254453
0.254396
0.254339
0.254283
0.254228
0.254174
0.25412
0.254067
0.254015
0.253964
0.253914
0.253865
0.253818
0.253773
0.253732
0.253695
0.253667
0.253651
0.253661
0.25372
0.253858
0.254125
0.254619
0.255508
0.257028
0.259541
0.263666
0.270408
0.281359
0.298987
0.326998
0.370729
0.437519
0.536831
0.680038
0.879501
1.14711
1.4921
1.918
2.41605
2.96269
3.5423
4.12506
4.73747
5.30421
0.254688
0.254629
0.25457
0.254513
0.254455
0.254398
0.254342
0.254287
0.254232
0.254177
0.254124
0.254071
0.254019
0.253968
0.253918
0.253869
0.253822
0.253777
0.253736
0.253699
0.25367
0.253654
0.253664
0.253722
0.25386
0.254127
0.254623
0.255516
0.257046
0.259579
0.263741
0.270547
0.281607
0.299411
0.327702
0.371876
0.439359
0.53976
0.684688
0.886878
1.15873
1.51015
1.9453
2.45557
3.01759
3.61545
4.21907
4.85362
5.44556
0.254689
0.254631
0.254573
0.254515
0.254458
0.254402
0.254346
0.254291
0.254236
0.254182
0.254129
0.254076
0.254024
0.253973
0.253923
0.253874
0.253827
0.253782
0.25374
0.253703
0.253674
0.253657
0.253666
0.253724
0.253861
0.254129
0.254627
0.255526
0.25707
0.259629
0.26384
0.270735
0.281951
0.300022
0.328757
0.373654
0.442291
0.544508
0.692227
0.898617
1.1766
1.5367
1.98356
2.50831
3.08775
3.7051
4.33088
4.98822
5.60775
0.25469
0.254632
0.254574
0.254517
0.254461
0.254405
0.25435
0.254295
0.25424
0.254186
0.254133
0.254081
0.254029
0.253978
0.253928
0.253879
0.253832
0.253787
0.253745
0.253707
0.253678
0.253661
0.253669
0.253727
0.253864
0.254133
0.254634
0.255541
0.257101
0.259693
0.263964
0.270966
0.282363
0.300732
0.329942
0.37558
0.445342
0.549237
0.699418
0.909372
1.19243
1.55964
2.01614
2.55321
3.14748
3.7815
4.42772
5.10534
5.74974
0.25469
0.254633
0.254576
0.25452
0.254464
0.254409
0.254353
0.254299
0.254245
0.254191
0.254138
0.254085
0.254034
0.253983
0.253933
0.253884
0.253836
0.253791
0.253749
0.253712
0.253681
0.253664
0.253672
0.253729
0.253866
0.254135
0.254639
0.255554
0.25713
0.259753
0.264082
0.271185
0.282758
0.301419
0.331102
0.377485
0.448394
0.554019
0.70676
0.920438
1.20881
1.58342
2.04999
2.60003
3.20952
3.86163
4.52898
5.22672
5.89674
0.254691
0.254634
0.254578
0.254522
0.254466
0.254411
0.254357
0.254302
0.254248
0.254195
0.254142
0.25409
0.254038
0.253987
0.253937
0.253888
0.253841
0.253796
0.253753
0.253715
0.253685
0.253668
0.253675
0.253732
0.253868
0.254139
0.254646
0.255569
0.257162
0.259817
0.264205
0.271413
0.283162
0.302111
0.332248
0.379327
0.451273
0.55841
0.713308
0.930022
1.22261
1.603
2.07736
2.6376
3.25972
3.92608
4.61103
5.32445
6.01767
0.254692
0.254636
0.25458
0.254524
0.254469
0.254414
0.25436
0.254306
0.254252
0.254199
0.254146
0.254094
0.254042
0.253991
0.253941
0.253892
0.253845
0.2538
0.253757
0.253719
0.253689
0.253671
0.253678
0.253734
0.25387
0.254142
0.254652
0.255583
0.257191
0.259877
0.264321
0.271628
0.283542
0.302759
0.333316
0.38103
0.453908
0.562374
0.719128
0.938397
1.23447
1.61959
2.10039
2.66886
3.30146
3.97989
4.68035
5.40742
6.12096
0.254692
0.254636
0.254581
0.254526
0.254471
0.254417
0.254362
0.254309
0.254255
0.254202
0.25415
0.254098
0.254046
0.253995
0.253945
0.253896
0.253849
0.253803
0.253761
0.253723
0.253692
0.253674
0.25368
0.253736
0.253873
0.254145
0.254659
0.255598
0.257223
0.259941
0.264443
0.27185
0.28393
0.303414
0.334382
0.382704
0.45645
0.566114