/*--------------------------------*- C++ -*----------------------------------*\
| =========                 |                                                 |
| \\      /  F ield         | OpenFOAM: The Open Source CFD Toolbox           |
|  \\    /   O peration     | Version:  2.3.0                                 |
|   \\  /    A nd           | Web:      www.OpenFOAM.org                      |
|    \\/     M anipulation  |                                                 |
\*---------------------------------------------------------------------------*/
FoamFile
{
    version     2.0;
    format      ascii;
    class       surfaceScalarField;
    location    "200";
    object      phi;
}
// * * * * * * * * * * * * * * * * * * * * * * * * * * * * * * * * * * * * * //

dimensions      [0 3 -1 0 0 0 0];

internalField   nonuniform List<scalar> 
56756
(
0.389367
0.768864
-0.749199
-0.409033
0.369728
0.768179
-0.74854
0.350095
0.767404
-0.747771
0.330443
0.766636
-0.746984
0.310772
0.765857
-0.746186
0.291083
0.765091
-0.745402
0.271376
0.764365
-0.744657
0.251652
0.7637
-0.743977
0.231923
0.763123
-0.743394
0.2122
0.762677
-0.742954
0.192503
0.762416
-0.74272
0.172863
0.762417
-0.742777
0.15332
0.762781
-0.743239
0.133748
0.771198
-0.751626
0.116175
0.702451
-0.684878
0.10046
0.640336
-0.624621
0.0864692
0.584173
-0.570182
0.0740743
0.533337
-0.520943
0.0631485
0.487258
-0.476332
0.0535651
0.445431
-0.435848
0.0452012
0.407379
-0.399015
0.0379341
0.372746
-0.365479
0.0316445
0.341066
-0.334776
0.0262272
0.312265
-0.306848
0.0215451
0.285632
-0.28095
0.0175656
0.261638
-0.257659
0.0140838
0.239079
-0.235597
0.0112513
0.219103
-0.216271
0.00861979
0.199988
-0.197357
0.00666781
0.183042
-0.18109
0.00451571
0.167098
-0.164946
0.00320855
0.152472
-0.151164
0.000976156
0.141724
-0.139492
0.111365
-0.110389
0.344954
0.786035
-0.362125
0.327734
0.785399
0.310499
0.784639
0.293245
0.78389
0.275966
0.783136
0.258662
0.782394
0.241336
0.781691
0.223992
0.781044
0.206638
0.780477
0.189287
0.780028
0.171958
0.779746
0.154676
0.779699
0.13748
0.779977
0.120258
0.788421
0.104794
0.717915
0.0909654
0.654165
0.0786556
0.596483
0.0677505
0.544243
0.0581383
0.49687
0.0497076
0.453862
0.0423483
0.414738
0.0359526
0.379142
0.0304086
0.34661
0.025635
0.317039
0.0214903
0.289776
0.0179613
0.265167
0.014851
0.242189
0.0122707
0.221683
0.0098271
0.202432
0.00792352
0.184945
0.00574256
0.169279
0.00434346
0.153871
0.00193085
0.144137
0.113296
0.308668
0.801324
-0.323957
0.293326
0.80074
0.277948
0.800018
0.262537
0.799301
0.247091
0.798581
0.231616
0.79787
0.216113
0.797194
0.200589
0.796568
0.185049
0.796016
0.169506
0.795571
0.153975
0.795277
0.138482
0.795192
0.123059
0.7954
0.107606
0.803874
0.0937239
0.731797
0.0813048
0.666584
0.0702439
0.607544
0.0604384
0.554048
0.0517871
0.505521
0.0441903
0.461459
0.0375478
0.421381
0.0317668
0.384923
0.0267387
0.351638
0.0224033
0.321374
0.0186133
0.293566
0.0153772
0.268403
0.0124916
0.245075
0.010076
0.224099
0.00777092
0.204737
0.00596226
0.186754
0.00392041
0.171321
0.00274618
0.155045
0.000972031
0.145911
0.114268
0.274163
0.814956
-0.287795
0.2605
0.814404
0.246786
0.813731
0.233036
0.813051
0.219252
0.812365
0.205433
0.811689
0.191582
0.811045
0.177704
0.810447
0.163804
0.809916
0.149893
0.809482
0.135986
0.809185
0.122102
0.809076
0.108272
0.80923
0.0944021
0.817743
0.08193
0.744269
0.0707594
0.677754
0.0607976
0.617505
0.0519542
0.562892
0.0441394
0.513336
0.0372653
0.468333
0.0312418
0.427404
0.02599
0.390175
0.0214107
0.356217
0.0174604
0.325325
0.0140103
0.297016
0.0110835
0.27133
0.008497
0.247662
0.00640782
0.226188
0.00445349
0.206692
0.00310312
0.188104
0.00157476
0.172849
0.000867988
0.155752
-0.000115981
0.146895
0.114152
0.258665
0.827575
-0.271284
0.246028
0.827041
0.233313
0.826446
0.220552
0.825812
0.207757
0.825159
0.194923
0.824524
0.18205
0.823918
0.169144
0.823353
0.156209
0.822851
0.143254
0.822437
0.130291
0.822148
0.117338
0.822029
0.104422
0.822146
0.0914532
0.830712
0.0797741
0.755948
0.0692966
0.688232
0.0599349
0.626867
0.0516048
0.571222
0.0442234
0.520717
0.0377118
0.474845
0.0319856
0.43313
0.0269807
0.39518
0.0226005
0.360597
0.018818
0.329107
0.0155027
0.300332
0.0126908
0.274142
0.0101877
0.250165
0.00816245
0.228213
0.00621091
0.208643
0.00480089
0.189514
0.00320787
0.174443
0.00229039
0.156669
0.000908426
0.148277
0.11506
0.230345
0.838719
-0.241489
0.219211
0.838175
0.207999
0.837658
0.196729
0.837082
0.185418
0.83647
0.174062
0.83588
0.16266
0.83532
0.151215
0.834798
0.139732
0.834334
0.128216
0.833953
0.116677
0.833686
0.105132
0.833574
0.0936007
0.833677
0.0820016
0.842311
0.0715356
0.766414
0.0621276
0.69764
0.0537042
0.635291
0.0461937
0.578732
0.0395239
0.527387
0.0336273
0.480741
0.0284268
0.438331
0.0238688
0.399738
0.0198635
0.364603
0.016389
0.332582
0.0133297
0.303391
0.0107197
0.276752
0.0083875
0.252497
0.00651025
0.230091
0.00469122
0.210462
0.00342515
0.19078
0.00199242
0.175875
0.00125636
0.157405
0.00026493
0.149268
0.115325
0.212545
0.84877
-0.222596
0.202481
0.848239
0.192335
0.847803
0.182118
0.847299
0.17185
0.846739
0.161528
0.846202
0.151152
0.845696
0.140724
0.845226
0.130247
0.844812
0.119725
0.844475
0.109167
0.844244
0.0985846
0.844156
0.0879978
0.844264
0.0773288
0.85298
0.0676832
0.77606
0.0589952
0.706328
0.0511991
0.643087
0.0442315
0.5857
0.0380266
0.533592
0.0325269
0.486241
0.0276603
0.443197
0.0233861
0.404012
0.0196171
0.368372
0.0163461
0.335853
0.0134518
0.306285
0.0109914
0.279212
0.00876421
0.254724
0.00698164
0.231873
0.0052183
0.212225
0.00397485
0.192024
0.00256898
0.177281
0.00173711
0.158237
0.000642001
0.150363
0.115967
0.193226
0.857646
-0.202101
0.184397
0.857068
0.175465
0.856735
0.166437
0.856326
0.157346
0.85583
0.148193
0.855355
0.138975
0.854914
0.129693
0.854508
0.12035
0.854155
0.110948
0.853877
0.101493
0.853699
0.0919939
0.853655
0.0824664
0.853791
0.072838
0.862609
0.064107
0.78479
0.0562195
0.714215
0.0491213
0.650185
0.0427601
0.592061
0.0370795
0.539273
0.0320313
0.491289
0.0275493
0.447679
0.0235992
0.407962
0.0200992
0.371872
0.0170405
0.338911
0.0143149
0.309011
0.0119644
0.281563
0.00982293
0.256866
0.00806538
0.233631
0.00630156
0.213989
0.00497255
0.193353
0.00345656
0.178797
0.00241845
0.159275
0.00108463
0.151697
0.117052
0.175546
0.865581
-0.183482
0.167641
0.864973
0.159641
0.864736
0.151547
0.86442
0.143381
0.863996
0.135141
0.863595
0.126827
0.863229
0.118434
0.8629
0.109965
0.862625
0.101419
0.862423
0.0927998
0.862318
0.0841152
0.86234
0.0753764
0.86253
0.0665144
0.871471
0.0584497
0.792855
0.0511378
0.721527
0.0445326
0.65679
0.0385903
0.598003
0.0332616
0.544601
0.0285087
0.496042
0.0242728
0.451915
0.0205325
0.411703
0.0172115
0.375193
0.0143181
0.341805
0.0117383
0.311591
0.00954428
0.283757
0.00752787
0.258882
0.00591875
0.23524
0.00432151
0.215586
0.0031664
0.194508
0.00191455
0.180049
0.00110174
0.160088
0.000264916
0.152534
0.117317
0.165927
0.872849
-0.173194
0.158659
0.872241
0.151281
0.872114
0.143814
0.871887
0.136261
0.871549
0.128622
0.871233
0.120898
0.870953
0.113084
0.870714
0.105178
0.870531
0.0971784
0.870422
0.0890875
0.870409
0.0809086
0.870518
0.0726493
0.870789
0.06424
0.87988
0.0565537
0.800541
0.0495537
0.728527
0.0432023
0.663141
0.0374642
0.603741
0.0322969
0.549768
0.0276702
0.500669
0.0235305
0.456055
0.0198612
0.415372
0.016592
0.378462
0.0137311
0.344666
0.0111791
0.314143
0.00900201
0.285934
0.00703055
0.260853
0.00544973
0.236821
0.00392528
0.217111
0.00282002
0.195613
0.00167603
0.181193
0.000916496
0.160847
0.000163235
0.153287
0.11748
0.142707
0.878865
-0.148724
0.136709
0.878239
0.130598
0.878225
0.124385
0.8781
0.118071
0.877863
0.111657
0.877647
0.105144
0.877466
0.0985259
0.877332
0.0917989
0.877258
0.084961
0.87726
0.0780117
0.877358
0.0709532
0.877577
0.0637908
0.877951
0.0564627
0.887208
0.049733
0.807271
0.0435762
0.734684
0.0379633
0.668754
0.0328677
0.608837
0.0282539
0.554382
0.0241013
0.504821
0.0203652
0.459791
0.0170407
0.418696
0.0140686
0.381434
0.0114735
0.347261
0.00915708
0.316459
0.00720938
0.287882
0.00542343
0.262639
0.00405829
0.238186
0.00272531
0.218444
0.00186131
0.196477
0.000960449
0.182094
0.000552719
0.161255
0.000101251
0.153739
0.117581
0.144094
0.884235
-0.149463
0.138705
0.883628
0.133191
0.883739
0.127568
0.883724
0.121828
0.883604
0.115975
0.8835
0.11001
0.883431
0.103927
0.883415
0.09772
0.883465
0.0913863
0.883594
0.0849232
0.883821
0.0783302
0.88417
0.0716095
0.884672
0.0646992
0.894118
0.0583193
0.813651
0.0524522
0.740551
0.0470762
0.67413
0.0421709
0.613742
0.0377039
0.558849
0.0336566
0.508869
0.0299815
0.463466
0.0266653
0.422013
0.0236421
0.384457
0.0209115
0.349991
0.0183901
0.31898
0.0161194
0.290153
0.0139477
0.264811
0.0119883
0.240145
0.01001
0.220422
0.00814717
0.19834
0.00623385
0.184007
0.00432415
0.163165
0.00225323
0.15581
0.119834
0.128166
0.888951
-0.132882
0.123426
0.888367
0.118555
0.88861
0.113565
0.888713
0.108441
0.888728
0.103188
0.888753
0.097806
0.888812
0.0922885
0.888932
0.0866288
0.889125
0.0808225
0.8894
0.0748659
0.889778
0.0687574
0.890278
0.0624983
0.890931
0.056029
0.900588
0.0500264
0.819654
0.0444787
0.746099
0.039367
0.679242
0.0346739
0.618435
0.0303673
0.563156
0.0264313
0.512805
0.0228231
0.467074
0.0195374
0.425298
0.0165251
0.38747
0.0138022
0.352714
0.0112911
0.321492
0.00905899
0.292385
0.00696641
0.266904
0.005193
0.241919
0.00351235
0.222103
0.00217967
0.199673
0.000938423
0.185248
5.22992e-05
0.164051
-0.00049467
0.156357
0.11934
0.115881
0.893123
-0.120053
0.111661
0.892587
0.107297
0.892975
0.102806
0.893205
0.0981655
0.893368
0.0933819
0.893537
0.0884554
0.893739
0.0833778
0.89401
0.078142
0.894361
0.0727418
0.8948
0.0671719
0.895348
0.0614282
0.896022
0.0555085
0.896851
0.0493532
0.906743
0.0436079
0.825399
0.0382725
0.751434
0.0333414
0.684173
0.0288129
0.622964
0.024673
0.567296
0.0209239
0.516554
0.0175399
0.470458
0.0145265
0.428312
0.0118344
0.390162
0.00948609
0.355063
0.00740042
0.323577
0.0056478
0.294137
0.00407705
0.268474
0.00284519
0.243151
0.0017178
0.22323
0.000900941
0.200489
0.000125439
0.186024
-0.000469135
0.164646
-0.000745097
0.156633
0.118595
0.111174
0.896461
-0.114511
0.10775
0.896011
0.104194
0.896531
0.100498
0.896901
0.0966394
0.897226
0.0926242
0.897552
0.0884529
0.89791
0.0841175
0.898345
0.0796108
0.898867
0.0749266
0.899485
0.0700599
0.900214
0.065008
0.901074
0.0597705
0.902089
0.0542963
0.912217
0.049165
0.83053
0.0443816
0.756217
0.0399409
0.688614
0.0358386
0.627066
0.0320509
0.571083
0.0285673
0.520037
0.025352
0.473674
0.0223997
0.431264
0.0196754
0.392886
0.0171836
0.357555
0.0148802
0.325881
0.0127828
0.296235
0.0107836
0.270474
0.00894619
0.244988
0.00717347
0.225003
0.00547036
0.202193
0.00386617
0.187628
0.00222823
0.166284
0.000760865
0.1581
0.119355
0.104699
0.899423
-0.107662
0.101614
0.899096
0.098387
0.899757
0.0950166
0.900271
0.0914708
0.900772
0.0877576
0.901266
0.0838761
0.901792
0.0798183
0.902403
0.0755768
0.903109
0.0711444
0.903917
0.066515
0.904844
0.0616829
0.905906
0.0566437
0.907128
0.0513411
0.91752
0.0463306
0.835541
0.0416187
0.760929
0.0372028
0.69303
0.0330826
0.631186
0.0292465
0.574919
0.0256962
0.523588
0.0224085
0.476961
0.0193741
0.434298
0.0165574
0.395703
0.0139595
0.360152
0.0115312
0.328309
0.00932072
0.298445
0.00724047
0.272554
0.00538769
0.246841
0.0036732
0.226717
0.00215335
0.203712
0.000815255
0.188966
-0.000373161
0.167472
-0.000867454
0.158594
0.118488
0.0911491
0.902006
-0.0937313
0.0884294
0.901816
0.0855667
0.90262
0.0825485
0.903289
0.0793431
0.903977
0.0759582
0.90465
0.0723919
0.905358
0.0686366
0.906158
0.064685
0.907061
0.0605307
0.908071
0.0561687
0.909206
0.0515968
0.910478
0.0468158
0.911909
0.0417811
0.922554
0.037035
0.840287
0.0325952
0.765369
0.0284693
0.697156
0.0246638
0.634992
0.0211655
0.578418
0.0179718
0.526781
0.0150645
0.479869
0.0124413
0.436921
0.0100755
0.398068
0.00797325
0.362255
0.00609921
0.330183
0.00447919
0.300065
0.00303347
0.274
0.00180764
0.248067
0.000729829
0.227795
-0.000203471
0.204646
-0.000989038
0.189752
-0.00178548
0.168268
-0.00163103
0.15844
0.116857
0.0894004
0.904102
-0.0914968
0.0871264
0.90409
0.084724
0.905023
0.0821583
0.905855
0.079402
0.906734
0.0764615
0.907591
0.0733349
0.908485
0.0700161
0.909477
0.0664991
0.910577
0.0627779
0.911793
0.0588487
0.913135
0.0547088
0.914618
0.0503582
0.916259
0.0457523
0.92716
0.0413821
0.844657
0.0372634
0.769488
0.0333997
0.701019
0.0297943
0.638597
0.0264415
0.581771
0.0233357
0.529887
0.0204659
0.482739
0.0178252
0.439562
0.0153928
0.400501
0.0131421
0.364505
0.0110421
0.332283
0.00908532
0.302022
0.00723378
0.275851
0.00547989
0.249821
0.00385231
0.229423
0.002233
0.206265
0.000843665
0.191141
-0.000675884
0.169788
-0.000983301
0.158747
0.115874
0.0818757
0.906536
-0.0843097
0.0792584
0.906707
0.0765177
0.907763
0.0736181
0.908755
0.0705325
0.909819
0.0672684
0.910855
0.0638237
0.911929
0.0601945
0.913107
0.0563754
0.914397
0.052362
0.915806
0.0481515
0.917345
0.043744
0.919025
0.0391422
0.920861
0.0343058
0.931997
0.029757
0.849206
0.0255129
0.773732
0.0215839
0.704948
0.0179749
0.642206
0.0146811
0.585064
0.0116989
0.532869
0.00901581
0.485422
0.00661029
0.441968
0.00447849
0.402633
0.00261726
0.366367
0.00102078
0.333879
-0.000316994
0.30336
-0.00140468
0.276939
-0.00228996
0.250706
-0.002879
0.230012
-0.00340316
0.206789
-0.00355799
0.191296
-0.00380864
0.170039
-0.00274269
0.157681
0.113131
0.0740405
0.908191
-0.0756957
0.0722239
0.908524
0.070315
0.909672
0.0682727
0.910797
0.066076
0.912016
0.0637321
0.913199
0.0612417
0.91442
0.0586044
0.915744
0.0558186
0.917182
0.052883
0.918742
0.0497986
0.92043
0.0465678
0.922256
0.0431956
0.924233
0.0396527
0.93554
0.0363171
0.852542
0.0331958
0.776853
0.0302831
0.707861
0.0275737
0.644916
0.0250538
0.587584
0.0227058
0.535217
0.020519
0.487608
0.0184768
0.44401
0.01656
0.404549
0.0147221
0.368204
0.0129495
0.335652
0.0111936
0.305116
0.00948221
0.27865
0.00770561
0.252482
0.00595049
0.231767
0.00408644
0.208653
0.00237938
0.193003
0.000433771
0.171984
-0.000174649
0.15829
0.112956
0.0671055
0.910592
-0.0695062
0.0645588
0.911071
0.0619361
0.912295
0.0592002
0.913533
0.0563295
0.914887
0.0533341
0.916194
0.0502138
0.91754
0.0469705
0.918987
0.0436034
0.920549
0.0401123
0.922233
0.036498
0.924044
0.0327633
0.925991
0.0289112
0.928086
0.0249073
0.939543
0.0211741
0.856275
0.0177105
0.780317
0.0145131
0.711058
0.0115752
0.647854
0.00889023
0.590269
0.0064538
0.537654
0.0042552
0.489807
0.00228288
0.445982
0.000542519
0.40629
-0.000964395
0.369711
-0.00223665
0.336924
-0.00328689
0.306166
-0.00408594
0.279449
-0.00472972
0.253126
-0.00509535
0.232133
-0.00538591
0.208944
-0.00528446
0.192901
-0.00516418
0.171864
-0.00338899
0.156515
0.109567
0.059537
0.91262
-0.0615653
0.0573814
0.913226
0.0551691
0.914507
0.0528641
0.915838
0.0504493
0.917302
0.0479333
0.91871
0.0453177
0.920155
0.0426065
0.921698
0.0398014
0.923355
0.0369042
0.92513
0.0339194
0.927029
0.0308529
0.929057
0.0277142
0.931224
0.024483
0.942775
0.0215065
0.859251
0.0187841
0.783039
0.0163067
0.713536
0.0140675
0.650093
0.0120472
0.59229
0.0102275
0.539473
0.00859319
0.491441
0.00713216
0.447443
0.00582406
0.407598
0.00465175
0.370884
0.00359204
0.337984
0.00262573
0.307132
0.00174736
0.280328
0.000904616
0.253969
0.000218648
0.232819
-0.000587902
0.20975
-0.00126146
0.193575
-0.00202302
0.172625
-0.00151258
0.156004
0.108055
0.0532518
0.914346
-0.054978
0.0514148
0.915063
0.0495388
0.916383
0.047589
0.917788
0.0455483
0.919342
0.043428
0.920831
0.0412287
0.922355
0.0389566
0.923971
0.0366139
0.925697
0.0342039
0.92754
0.0317309
0.929502
0.0292012
0.931587
0.0266208
0.933805
0.0239715
0.945424
0.02153
0.861693
0.0192866
0.785283
0.0172277
0.715595
0.0153363
0.651984
0.0136004
0.594026
0.0120034
0.54107
0.0105199
0.492925
0.0091273
0.448836
0.00780537
0.40892
0.0065409
0.372148
0.00532367
0.339201
0.00413702
0.308319
0.00299506
0.28147
0.00186877
0.255095
0.000860049
0.233827
-0.000208685
0.210819
-0.00109614
0.194463
-0.0019849
0.173514
-0.00143765
0.155457
0.106617
0.0526795
0.916864
-0.055197
0.0500557
0.917687
0.0474171
0.919022
0.0447121
0.920493
0.0419342
0.92212
0.03909
0.923675
0.0361819
0.925263
0.0332163
0.926936
0.0301958
0.928718
0.0271233
0.930612
0.0240036
0.932622
0.0208414
0.934749
0.0176437
0.937002
0.0143852
0.948682
0.0114072
0.864671
0.00869741
0.787992
0.00624272
0.718049
0.00403417
0.654193
0.00205616
0.596004
0.000304826
0.542822
-0.00122416
0.494454
-0.00253454
0.450146
-0.00362994
0.410015
-0.00451841
0.373037
-0.00519826
0.339881
-0.00570624
0.308827
-0.00600226
0.281766
-0.00618997
0.255283
-0.00612711
0.233764
-0.00604636
0.210738
-0.00565134
0.194067
-0.00521554
0.173078
-0.00327407
0.153515
0.103343
0.0509777
0.9189
-0.0530137
0.0488426
0.919822
0.0467021
0.921162
0.0445112
0.922684
0.0422643
0.924367
0.0399683
0.925971
0.0376256
0.927605
0.035244
0.929318
0.0328265
0.931135
0.0303773
0.933062
0.0279018
0.935097
0.0254074
0.937244
0.0229016
0.939508
0.0203717
0.951212
0.0180822
0.86696
0.0160202
0.790054
0.0141686
0.719901
0.0125084
0.655853
0.0110192
0.597493
0.00967613
0.544165
0.00846009
0.49567
0.0073506
0.451256
0.00633247
0.411033
0.00538209
0.373987
0.00449236
0.340771
0.00363412
0.309685
0.00280266
0.282597
0.00195821
0.256127
0.00113303
0.23459
0.00025134
0.21162
-0.000571747
0.194891
-0.00138129
0.173888
-0.000955037
0.153089
0.102388
0.0405514
0.920638
-0.0422892
0.0387404
0.921633
0.0369309
0.922972
0.035087
0.924527
0.033201
0.926253
0.0312818
0.92789
0.0293313
0.929556
0.0273577
0.931291
0.0253649
0.933128
0.0233576
0.935069
0.0213416
0.937113
0.0193226
0.939263
0.0173073
0.941523
0.0152797
0.95324
0.0134461
0.868794
0.0117858
0.791715
0.010277
0.72141
0.00890168
0.657228
0.00764119
0.598753
0.00648317
0.545323
0.00540666
0.496746
0.00439665
0.452266
0.00343741
0.411993
0.00252281
0.374902
0.00165171
0.341642
0.000809908
0.310527
3.95231e-05
0.283367
-0.000723349
0.25689
-0.00137347
0.23524
-0.00204817
0.212295
-0.00250402
0.195346
-0.00279358
0.174178
-0.00166845
0.151964
0.10072
0.0375656
0.922706
-0.039634
0.0354283
0.92377
0.0332994
0.925101
0.0311452
0.926682
0.0289603
0.928438
0.0267524
0.930098
0.0245233
0.931785
0.0222811
0.933533
0.0200288
0.93538
0.0177712
0.937327
0.0155128
0.939371
0.0132596
0.941516
0.0110169
0.943766
0.00877127
0.955486
0.00675334
0.870812
0.00494833
0.79352
0.00334128
0.723017
0.00191759
0.658652
0.000665454
0.600005
-0.000428295
0.546417
-0.00136839
0.497687
-0.00216542
0.453063
-0.00281991
0.412647
-0.00335249
0.375434
-0.00376075
0.34205
-0.00407552
0.310842
-0.00424988
0.283542
-0.00440115
0.257042
-0.00440815
0.235247
-0.00446461
0.212351
-0.00430551
0.195187
-0.00401248
0.173884
-0.00230979
0.150261
0.0984098
0.0320831
0.924391
-0.0337684
0.0303405
0.925513
0.0286121
0.926829
0.0268698
0.928424
0.0251084
0.930199
0.0233368
0.93187
0.0215562
0.933566
0.0197754
0.935314
0.0179983
0.937157
0.0162307
0.939094
0.0144796
0.941122
0.0127529
0.943243
0.0110611
0.945458
0.00939869
0.957148
0.00794147
0.872269
0.00667071
0.79479
0.00556796
0.72412
0.00461558
0.659604
0.0037905
0.60083
0.00307601
0.547131
0.00244866
0.498314
0.00189257
0.453619
0.0013868
0.413153
0.000919813
0.375901
0.000482659
0.342487
4.63582e-05
0.311278
-0.000372252
0.28396
-0.000822902
0.257492
-0.00123292
0.235657
-0.00175011
0.212868
-0.00210305
0.19554
-0.0023027
0.174084
-0.00121837
0.149177
0.0971914
0.0270323
0.92629
-0.0289305
0.0250874
0.927458
0.0231621
0.928754
0.0212302
0.930356
0.0192877
0.932142
0.0173438
0.933814
0.0153988
0.935511
0.013462
0.937251
0.0115363
0.939083
0.00962777
0.941003
0.00774198
0.943008
0.00588597
0.945099
0.00406628
0.947278
0.00227453
0.95894
0.000692114
0.873851
-0.00070015
0.796183
-0.00192151
0.725341
-0.00298943
0.660672
-0.0039147
0.601756
-0.00471049
0.547927
-0.00538316
0.498987
-0.00594171
0.454177
-0.00638244
0.413594
-0.00672074
0.37624
-0.0069399
0.342707
-0.00707194
0.31141
-0.00706627
0.283955
-0.00701781
0.257444
-0.00677663
0.235416
-0.00652316
0.212615
-0.0060409
0.195058
-0.00510636
0.17315
-0.00279789
0.146869
0.0943935
0.0257526
0.927996
-0.0274592
0.0240073
0.929203
0.0222882
0.930474
0.0205702
0.932074
0.0188518
0.93386
0.0171399
0.935526
0.0154358
0.937215
0.013748
0.938939
0.0120796
0.940751
0.0104362
0.942646
0.00882349
0.944621
0.00724761
0.946675
0.00571688
0.948808
0.00422464
0.960432
0.00292684
0.875149
0.00180372
0.797306
0.000841173
0.726304
2.32908e-05
0.66149
-0.000665266
0.602444
-0.00123821
0.5485
-0.00170517
0.499454
-0.0020797
0.454552
-0.00236742
0.413881
-0.00258954
0.376462
-0.00274297
0.34286
-0.00286689
0.311534
-0.00293322
0.284021
-0.00298628
0.257497
-0.00300549
0.235435
-0.0030777
0.212687
-0.00305749
0.195038
-0.00271026
0.172802
-0.00130652
0.145465
0.093087
0.023023
0.929244
-0.0242713
0.0217435
0.930483
0.0204963
0.931721
0.0192569
0.933313
0.0180262
0.935091
0.0168105
0.936741
0.0156104
0.938415
0.0144345
0.940115
0.0132852
0.941901
0.012168
0.943763
0.0110874
0.945701
0.0100489
0.947713
0.00905695
0.9498
0.0081085
0.96138
0.00729479
0.875963
0.00659755
0.798003
0.00599563
0.726906
0.00547071
0.662015
0.00500634
0.602909
0.00458305
0.548923
0.00418521
0.499851
0.00379369
0.454943
0.00339885
0.414276
0.00297938
0.376881
0.00254063
0.343299
0.0020517
0.312023
0.00154736
0.284525
0.000984634
0.258059
0.00042974
0.23599
-0.000248687
0.213366
-0.000753112
0.195542
-0.000976415
0.173026
-0.000214948
0.144703
0.0928721
0.0170329
0.93058
-0.0183688
0.0156741
0.931841
0.0143481
0.933047
0.0130356
0.934626
0.011737
0.93639
0.0104597
0.938019
0.00920321
0.939672
0.00797586
0.941342
0.00677949
0.943097
0.00561921
0.944924
0.00449904
0.946822
0.00342276
0.948789
0.00239503
0.950828
0.00140787
0.962368
0.000558399
0.876812
-0.000178055
0.79874
-0.000817014
0.727545
-0.00137855
0.662577
-0.00187412
0.603404
-0.00231544
0.549364
-0.00270709
0.500243
-0.00305832
0.455295
-0.0033614
0.414579
-0.00362912
0.377149
-0.0038376
0.343507
-0.00401441
0.3122
-0.00410986
0.284621
-0.00422306
0.258173
-0.00419743
0.235964
-0.00421091
0.213379
-0.00393036
0.195262
-0.00321028
0.172306
-0.00144786
0.142941
0.0914242
0.011208
0.931715
-0.0123428
0.0100579
0.932992
0.00894519
0.934159
0.00784991
0.935721
0.00677512
0.937464
0.00572801
0.939066
0.00470715
0.940692
0.00372117
0.942328
0.00277106
0.944047
0.00186234
0.945832
0.000998385
0.947686
0.000183541
0.949604
-0.000578356
0.95159
-0.00128935
0.963079
-0.0018814
0.877405
-0.0023693
0.799227
-0.00276893
0.727944
-0.00308972
0.662897
-0.00334304
0.603657
-0.00353537
0.549557
-0.00367706
0.500385
-0.00377015
0.455388
-0.00381943
0.414629
-0.00383932
0.377169
-0.00382172
0.34349
-0.00380239
0.31218
-0.0037431
0.284562
-0.00372724
0.258157
-0.00365103
0.235888
-0.00363198
0.21336
-0.00340045
0.19503
-0.0026119
0.171517
-0.000915043
0.141244
0.0905092
0.00942754
0.932955
-0.010667
0.00817844
0.934241
0.00696944
0.935368
0.00578072
0.93691
0.00461856
0.938626
0.00348767
0.940197
0.00238784
0.941792
0.00132694
0.943389
0.000306159
0.945068
-0.000668815
0.946807
-0.00159393
0.948611
-0.00246407
0.950474
-0.00327239
0.952398
-0.00401937
0.963826
-0.00462717
0.878012
-0.00511453
0.799715
-0.00549168
0.728321
-0.00577392
0.66318
-0.00596881
0.603852
-0.00608845
0.549676
-0.00613871
0.500435
-0.00613381
0.455383
-0.00607055
0.414565
-0.00597359
0.377072
-0.00582625
0.343342
-0.00566179
0.312016
-0.00543903
0.284339
-0.00522722
0.257945
-0.00493988
0.235601
-0.00468671
0.213107
-0.00419644
0.19454
-0.00300506
0.170326
-0.000995554
0.139235
0.0895136
0.00629625
0.933784
-0.00712553
0.00546208
0.935075
0.00467343
0.936157
0.00390855
0.937675
0.00317586
0.939359
0.00248014
0.940892
0.00182085
0.942452
0.00120601
0.944004
0.000636604
0.945637
0.000118703
0.947325
-0.000343826
0.949073
-0.000745721
0.950876
-0.00108125
0.952734
-0.00134687
0.964091
-0.00151852
0.878184
-0.00161265
0.799809
-0.00164481
0.728353
-0.00163006
0.663165
-0.00158074
0.603803
-0.00151366
0.549609
-0.00143647
0.500358
-0.00136629
0.455313
-0.00129703
0.414496
-0.00125548
0.37703
-0.00122104
0.343308
-0.00123373
0.312028
-0.00125637
0.284361
-0.00135101
0.25804
-0.00144633
0.235696
-0.00162611
0.213287
-0.00155909
0.194473
-0.000879934
0.169647
0.000323922
0.138031
0.0898375
0.00152685
0.934556
-0.0022992
0.00075557
0.935846
3.30677e-05
0.93688
-0.000664297
0.938372
-0.00132376
0.940019
-0.00194341
0.941512
-0.00252261
0.943031
-0.0030545
0.944536
-0.00353837
0.946121
-0.0039686
0.947755
-0.00434214
0.949447
-0.00465492
0.951189
-0.00490267
0.952981
-0.00508402
0.964272
-0.00518518
0.878285
-0.00522581
0.79985
-0.00521906
0.728347
-0.00518124
0.663127
-0.00512173
0.603744
-0.00504705
0.549535
-0.00496246
0.500273
-0.0048724
0.455223
-0.0047718
0.414395
-0.00467601
0.376934
-0.00456273
0.343195
-0.00446168
0.311927
-0.0043234
0.284223
-0.00420593
0.257922
-0.00402445
0.235514
-0.00385734
0.21312
-0.0033315
0.193947
-0.00201322
0.168328
-0.000272382
0.13629
0.0895652
-0.00216719
0.935179
0.00154404
-0.00278401
0.936463
-0.00334905
0.937445
-0.00388781
0.938911
-0.00438387
0.940515
-0.00483747
0.941966
-0.00524698
0.94344
-0.00560659
0.944895
-0.00591584
0.946431
-0.00616941
0.948009
-0.00636502
0.949642
-0.00649894
0.951323
-0.00656827
0.953051
-0.00656993
0.964274
-0.00650959
0.878225
-0.00640161
0.799742
-0.00625856
0.728204
-0.00608648
0.662955
-0.00589414
0.603551
-0.00568263
0.549323
-0.0054601
0.500051
-0.00522954
0.454992
-0.00498502
0.414151
-0.00474486
0.376694
-0.00448906
0.342939
-0.00425358
0.311692
-0.00399942
0.283969
-0.00379149
0.257714
-0.00355884
0.235282
-0.00336944
0.21293
-0.00282896
0.193407
-0.00146947
0.166969
0.000104389
0.134716
0.0896696
-0.0053119
0.935677
0.00481472
-0.00579537
0.936947
-0.00622622
0.937875
-0.0066282
0.939313
-0.00698333
0.94087
-0.00729366
0.942276
-0.00755668
0.943703
-0.00776753
0.945106
-0.00792573
0.946589
-0.00802623
0.94811
-0.00806686
0.949683
-0.00804372
0.9513
-0.0079531
0.95296
-0.00778856
0.96411
-0.00756941
0.878006
-0.0073085
0.799481
-0.00701413
0.727909
-0.00669789
0.662639
-0.00636539
0.603219
-0.00602855
0.548986
-0.0056917
0.499714
-0.00536529
0.454666
-0.00504288
0.413829
-0.00474705
0.376398
-0.00445711
0.342649
-0.00420697
0.311442
-0.00395513
0.283717
-0.00375842
0.257518
-0.00354362
0.235067
-0.00335869
0.212745
-0.00273573
0.192784
-0.00126854
0.165502
0.000202847
0.133245
0.0898724
-0.00667719
0.936132
0.00622183
-0.00711243
0.937382
-0.00749428
0.938257
-0.00784532
0.939664
-0.00814615
0.941171
-0.00840041
0.94253
-0.00860457
0.943907
-0.00875472
0.945256
-0.00885019
0.946684
-0.00888584
0.948145
-0.00885954
0.949657
-0.00876678
0.951207
-0.00860414
0.952798
-0.00836445
0.96387
-0.0080775
0.877719
-0.0077577
0.799161
-0.00741931
0.727571
-0.00707161
0.662291
-0.00672687
0.602874
-0.006386
0.548645
-0.00605717
0.499385
-0.0057412
0.45435
-0.00543644
0.413524
-0.00515357
0.376116
-0.00487462
0.34237
-0.00462429
0.311191
-0.00436357
0.283456
-0.00414511
0.257299
-0.00389435
0.234816
-0.00363741
0.212488
-0.00289484
0.192041
-0.00124694
0.163854
0.000209371
0.131788
0.0900818
-0.0123383
0.936409
0.0120611
-0.0125864
0.93763
-0.0127827
0.938454
-0.0129458
0.939827
-0.0130554
0.94128
-0.0131162
0.942591
-0.0131239
0.943915
-0.0130757
0.945208
-0.0129709
0.946579
-0.0128048
0.947979
-0.0125758
0.949428
-0.0122801
0.950911
-0.0119157
0.952433
-0.0114742
0.963428
-0.0110065
0.877251
-0.010523
0.798677
-0.0100323
0.72708
-0.00953851
0.661797
-0.00904648
0.602382
-0.00855579
0.548155
-0.00807189
0.498901
-0.00759996
0.453878
-0.0071297
0.413053
-0.0066788
0.375665
-0.0062259
0.341917
-0.00580067
0.310766
-0.00536584
0.283022
-0.00497717
0.25691
-0.00456712
0.234406
-0.00415854
0.21208
-0.00320381
0.191086
-0.0013963
0.162046
6.72204e-05
0.130325
0.090149
-0.0166478
0.936357
0.0167001
-0.016559
0.937541
-0.0164197
0.938314
-0.0162433
0.93965
-0.0160106
0.941048
-0.0157263
0.942307
-0.0153863
0.943575
-0.0149885
0.94481
-0.0145323
0.946123
-0.0140131
0.94746
-0.0134299
0.948845
-0.0127787
0.95026
-0.0120574
0.951712
-0.0112535
0.962624
-0.0104534
0.876451
-0.00966578
0.79789
-0.00889899
0.726313
-0.00815867
0.661057
-0.00745341
0.601677
-0.00678576
0.547487
-0.00615997
0.498275
-0.00558544
0.453303
-0.00505302
0.412521
-0.00458557
0.375197
-0.00415988
0.341491
-0.00380744
0.310414
-0.00349098
0.282705
-0.00325517
0.256675
-0.00304074
0.234192
-0.00282401
0.211863
-0.00196979
0.190232
-0.000467497
0.160544
0.000499584
0.129358
0.0906486
-0.0179769
0.936478
0.0178555
-0.0180569
0.937621
-0.0180877
0.938345
-0.0180796
0.939642
-0.0180138
0.940982
-0.0178953
0.942188
-0.0177199
0.9434
-0.0174861
0.944576
-0.0171934
0.945831
-0.0168377
0.947104
-0.0164185
0.948425
-0.0159319
0.949774
-0.0153776
0.951158
-0.0147455
0.961992
-0.0141087
0.875814
-0.0134755
0.797257
-0.0128581
0.725696
-0.0122567
0.660455
-0.0116794
0.601099
-0.0111184
0.546926
-0.0105816
0.497738
-0.0100577
0.452779
-0.00954531
0.412009
-0.00904181
0.374694
-0.00852253
0.340972
-0.00801033
0.309902
-0.00746008
0.282155
-0.00692693
0.256141
-0.0063237
0.233588
-0.0056368
0.211176
-0.00419852
0.188794
-0.0020465
0.158392
-0.000378438
0.12769
0.0902701
-0.0229204
0.936168
0.0232303
-0.0225625
0.937263
-0.0221563
0.937939
-0.0217075
0.939194
-0.0211985
0.940473
-0.0206338
0.941623
-0.0200096
0.942776
-0.0193253
0.943892
-0.0185803
0.945086
-0.0177707
0.946295
-0.0168965
0.947551
-0.0159543
0.948831
-0.0149438
0.950147
-0.0138511
0.9609
-0.0127933
0.874756
-0.0117764
0.79624
-0.010805
0.724725
-0.00988043
0.659531
-0.00900701
0.600226
-0.0081802
0.546099
-0.00740375
0.496962
-0.00667653
0.452052
-0.00599793
0.41133
-0.00538059
0.374076
-0.00480953
0.340401
-0.00432026
0.309412
-0.00387764
0.281712
-0.0035401
0.255804
-0.00323151
0.23328
-0.00288696
0.210831
-0.00180457
0.187711
-0.00031088
0.156898
0.000541563
0.126837
0.0908117
-0.0296888
0.935507
0.0303499
-0.0289729
0.936547
-0.0282119
0.937178
-0.0274051
0.938387
-0.0265362
0.939604
-0.0256087
0.940696
-0.0246196
0.941786
-0.0235685
0.942841
-0.022455
0.943972
-0.0212755
0.945115
-0.0200302
0.946306
-0.0187158
0.947517