/*--------------------------------*- C++ -*----------------------------------*\
| =========                 |                                                 |
| \\      /  F ield         | OpenFOAM: The Open Source CFD Toolbox           |
|  \\    /   O peration     | Version:  2.3.0                                 |
|   \\  /    A nd           | Web:      www.OpenFOAM.org                      |
|    \\/     M anipulation  |                                                 |
\*---------------------------------------------------------------------------*/
FoamFile
{
    version     2.0;
    format      ascii;
    class       volScalarField;
    location    "100";
    object      omega;
}
// * * * * * * * * * * * * * * * * * * * * * * * * * * * * * * * * * * * * * //

dimensions      [0 0 -1 0 0 0 0];

internalField   nonuniform List<scalar> 
28552
(
5.49241
6.20031
6.97946
7.87802
8.96139
10.2717
11.8654
13.8281
16.2756
19.3658
23.3229
28.4674
35.2787
44.5653
56.2454
70.896
89.1848
111.935
140.194
175.161
218.665
272.076
340.106
420.931
533.765
655.638
856.486
1031.16
1408.67
1781.61
2615.75
3626.67
4690.57
3384.3
5.63332
6.39513
7.18907
8.10182
9.21321
10.5557
12.1853
14.19
16.6863
19.832
23.8517
29.0654
35.9521
45.319
57.0568
71.7313
89.9987
112.662
140.758
175.437
218.57
271.327
338.734
418.3
529.805
649.916
847.617
1021.11
1392.84
1759.61
2574.44
3588.77
4663.86
3403.41
5.77771
6.59896
7.41184
8.34251
9.48439
10.86
12.5255
14.5716
17.1152
20.3145
24.3942
29.674
36.6309
46.0703
57.864
72.5666
90.8243
113.423
141.396
175.842
218.694
270.903
337.851
416.363
526.902
645.45
841.096
1013.23
1382.18
1743.45
2561.82
3571.24
4620.42
3443.49
5.92505
6.80944
7.63903
8.58945
9.76201
11.1709
12.8734
14.9623
17.5545
20.8088
24.9507
30.2997
37.3319
46.8511
58.7135
73.4641
91.7438
114.324
142.241
176.541
219.244
271.059
337.783
415.495
525.601
642.796
837.779
1008.31
1377.59
1735.22
2554.66
3567.98
4558.08
3495.3
6.06159
7.00353
7.84566
8.81567
10.0156
11.4533
13.1886
15.315
17.949
21.2499
25.4434
30.8486
37.9398
47.5191
59.4276
74.2009
92.4739
115.002
142.826
176.932
219.43
270.787
337.159
413.985
523.35
639.047
832.557
1001.53
1368.73
1722.35
2536.17
3545.32
4492.25
3558.89
6.19159
7.20024
8.0478
9.03762
10.2649
11.7303
13.4974
15.6604
18.3351
21.6811
25.9246
31.384
38.5323
48.1697
60.1244
74.9227
93.1954
115.681
143.431
177.366
219.699
270.645
336.735
412.743
521.555
635.765
828.363
995.65
1361.99
1712.15
2520.99
3530
4428.63
3639.29
6.28978
7.38358
8.2385
9.24846
10.5016
11.9929
13.7896
15.9864
18.6983
22.0853
26.3735
31.8808
39.0783
48.7636
60.7533
75.5644
93.8242
116.254
143.916
177.663
219.811
270.327
336.094
411.267
519.447
632.144
823.584
989.374
1353.78
1700.75
2500.72
3506.18
4365.21
3746.06
6.34728
7.54586
8.41726
9.44841
10.7267
12.2422
14.0664
16.2942
19.04
22.4639
26.7916
32.3401
39.5786
49.3012
61.3131
76.1226
94.3536
116.707
144.258
177.788
219.71
269.756
335.115
409.395
516.765
627.882
817.695
982.158
1343.18
1686.92
2474.96
3475.01
4301.71
3889.14
6.40179
7.70078
8.58812
9.64008
10.9419
12.4799
14.3301
16.5872
19.3648
22.8233
27.1881
32.7753
40.0521
49.8096
61.8433
76.6531
94.8616
117.148
144.608
177.947
219.687
269.317
334.364
407.841
514.651
624.327
813.073
976.557
1335.11
1677.33
2452.16
3451.96
4221.58
4085.65
6.48061
7.84062
8.74367
9.8172
11.1391
12.6972
14.5706
16.8534
19.6588
23.1472
27.5434
33.1624
40.4693
50.2518
62.2963
77.0951
95.2702
117.479
144.835
177.972
219.514
268.716
333.42
406.083
512.28
620.53
808.034
970.631
1325.95
1666.45
2425.79
3424.92
4130.85
4383.74
6.57072
7.99265
8.89911
9.99705
11.3383
12.9164
14.8136
17.1223
19.9559
23.4747
27.9029
33.5547
40.8935
50.7033
62.7633
77.5582
95.7109
117.855
145.13
178.088
219.466
268.272
332.7
404.565
510.295
617.091
803.712
965.26
1318.05
1656.48
2400.6
3388.06
4059.78
4877.2
6.65141
8.11574
9.02997
10.1506
11.5059
13.0992
15.0142
17.3412
20.1936
23.731
28.1761
33.8411
41.1856
50.9875
63.0154
77.7456
95.7982
117.78
144.841
177.462
218.433
266.598
330.254
400.998
505.144
610.212
793.327
953.802
1298.55
1632.02
2356.39
3322.19
4042.69
5793
6.7327
8.23968
9.15727
10.3016
11.6701
13.2784
15.2116
17.5576
20.4297
23.9873
28.4517
34.1337
41.4902
51.2938
63.3061
77.9962
95.9855
117.857
144.782
177.171
217.903
265.625
328.888
398.831
502.27
606.102
787.614
947.795
1288.05
1620.84
2326.62
3296.28
3988.14
8886.76
6.81415
8.36123
9.28034
10.4491
11.8298
13.4527
15.4039
17.769
20.6614
24.2399
28.725
34.4264
41.7989
51.6105
63.6186
78.2852
96.2361
118.03
144.867
177.081
217.654
265.016
328.007
397.266
500.14
602.947
782.913
943.275
1278.7
1611.49
2296.2
3260.97
4117.17
13657.5
6.89183
8.46846
9.39201
10.5836
11.9733
13.6076
15.5728
17.9523
20.8593
24.4514
28.9474
34.6551
42.0258
51.8207
63.7895
78.386
96.2347
117.868
144.496
176.388
216.572
263.335
325.605
393.837
495.25
596.584
773.323
932.659
1260.73
1588.47
2252
3182.94
4687.71
19924.4
6.96663
8.5637
9.49557
10.7094
12.1068
13.751
15.7285
18.1209
21.0409
24.6448
29.1499
34.8618
42.2289
52.0056
63.9365
78.4681
96.2265
117.72
144.177
175.805
215.691
261.974
323.713
391.115
491.453
591.674
765.974
925.042
1246.87
1572.85
2215.04
3148.49
6099.05
27140.6
7.04301
8.66187
9.60008
10.8378
12.2433
13.8981
15.8891
18.2964
21.2323
24.8518
29.3713
35.0949
42.4689
52.2428
64.1588
78.6569
96.3676
117.777
144.135
175.588
215.293
261.227
322.627
389.407
488.96
588.446
760.63
920.117
1235.67
1560.9
2183.14
3177.18
8399.64
34284
7.11543
8.74392
9.69451
10.9548
12.3669
14.0297
16.0309
18.4494
21.3968
25.0263
29.5525
35.2775
42.6441
52.3947
64.267
78.6931
96.3046
117.566
143.735
174.906
214.272
259.706
320.472
386.415
484.615
583.02
752.186
911.146
1219.46
1540.99
2139.36
3221.31
11095.3
40613.2
7.18605
8.81905
9.78497
11.0688
12.4883
14.1598
16.1718
18.6035
21.5653
25.2089
29.7482
35.4839
42.857
52.6056
64.4672
78.8679
96.4449
117.644
143.743
174.782
214.024
259.191
319.735
385.197
482.873
580.783
748.892
909.471
1211.43
1535.51
2119.25
3580.96
13902.2
45146.8
7.25578
8.88896
9.8707
11.1766
12.6019
14.279
16.2978
18.7377
21.7079
25.3578
29.8995
35.6313
42.9904
52.7077
64.5159
78.8329
96.2941
117.326
143.203
173.928
212.757
257.376
317.123
381.702
477.704
574.419
738.878
897.941
1191.73
1508.63
2071.53
3752.65
15827.1
48335.6
7.32409
8.95391
9.95368
11.2827
12.7151
14.3991
16.4261
18.8773
21.8601
25.5226
30.0759
35.8173
43.1831
52.9004
64.7039
79.0065
96.4501
117.446
143.29
173.935
212.709
257.159
316.816
381.147
477.176
574.175
736.927
899.042
1185.36
1508.22
2097.52
4417.43
17651.2
50027.2
7.39204
9.0168
10.0347
11.3865
12.8258
14.5155
16.5492
19.0098
22.0033
25.6759
30.2376
35.9843
43.3504
53.0589
64.844
79.1124
96.5083
117.428
143.17
173.656
212.224
256.366
315.592
379.403
474.411
570.724
731.006
891.677
1171.66
1487.29
2084.55
4865.35
18655.3
50906.5
7.45915
9.07658
10.1129
11.4869
12.9331
14.6273
16.6661
19.1345
22.1368
25.8171
30.3841
36.1317
43.4925
53.1843
64.9396
79.1596
96.4882
117.308
142.92
173.216
211.533
255.326
314.06
377.306
471.245
566.77
724.644
884.32
1157.69
1467.6
2078.5
5305.22
19298.7
51232.6
7.52199
9.12491
10.1836
11.5798
13.0342
14.7335
16.7781
19.2559
22.2697
25.9618
30.5403
36.2984
43.6685
53.3659
65.1268
79.3479
96.6797
117.494
143.106
173.376
211.698
255.591
314.285
377.654
471.073
567.515
722.661
885.233
1151.88
1468.45
2171.5
6004.14
20026.5
50964.9
7.58257
9.16517
10.2474
11.6641
13.1266
14.8288
16.8762
19.3595
22.3801
26.0782
30.6606
36.4185
43.783
53.4651
65.1997
79.3787
96.6506
117.378
142.866
172.967
211.036
254.618
312.783
375.645
467.887
563.561
716.072
875.526
1136.87
1444.29
2175.64
6400.73
20377.9
50511.9
7.64519
9.21321
10.316
11.7541
13.2253
14.9309
16.982
19.4721
22.5012
26.2073
30.7959
36.5571
43.9205
53.5933
65.3102
79.4588
96.6873
117.351
142.749
172.721
210.608
253.949
311.743
374.204
465.611
560.769
710.897
869.209
1125.76
1432.66
2240.61
6926.29
20900.9
49922.6
7.70587
9.25775
10.3818
11.8413
13.3225
15.0319
17.0877
19.5859
22.6253
26.3424
30.9417
36.7124
44.0844
53.7627
65.4847
79.6347
96.8634
117.52
142.906
172.848
210.704
254.066
311.706
374.176
464.935
560.462
707.929
866.848
1117.78
1432.36
2374.75
7601.11
21648.6
49170.2
7.76638
9.30379
10.4478
11.9283
13.4197
15.1322
17.192
19.6973
22.7461
26.4726
31.0805
36.8578
44.2338
53.9107
65.6263
79.7616
96.9651
117.583
142.901
172.754
210.448
253.63
310.9
373.058
462.903
557.948
703.082
860.485
1106.26
1421.16
2475.85
8175.91
22417.7
48418.8
7.82645
9.35167
10.5149
12.017
13.5196
15.236
17.3015
19.8158
22.8767
26.6163
31.2376
37.0283
44.4181
54.1077
65.8381
79.9878
97.212
117.888
143.235
173.132
210.83
254.104
311.232
373.678
462.907
558.755
701.918
860.818
1102.2
1443.34
2734.13
9009.29
23580.6
47580.4
7.88446
9.3961
10.5782
12.1007
13.6148
15.3341
17.4042
19.926
22.997
26.7473
31.3789
37.1788
44.5766
54.2708
66.0041
80.1524
97.3686
118.031
143.342
173.194
210.819
254.024
310.86
373.189
461.596
557.311
698.221
855.657
1092.98
1446.34
2940.58
9759.89
24903.9
46717.4
7.94137
9.43999
10.6396
12.1813
13.7068
15.4278
17.501
20.0281
23.1067
26.8641
31.5013
37.3039
44.7005
54.3862
66.1022
80.2222
97.3919
117.992
143.197
172.923
210.317
253.281
309.627
371.532
458.867
553.788
692.254
846.658
1079.03
1430.56
3093.55
10472
26416.5
46050.6
7.99894
9.48917
10.7049
12.2666
13.8042
15.5276
17.6061
20.1408
23.2301
26.9987
31.6469
37.4596
44.8655
54.5576
66.2785
80.4006
97.5659
118.159
143.351
173.078
210.402
253.332
309.456
371.344
458.005
552.945
689.176
843.111
1072.45
1457.1
3420.56
11472.1
28307
45503.2
8.05738
9.54404
10.774
12.3562
13.9058
15.6318
17.7166
20.2598
23.3611
27.1422
31.8031
37.6285
45.0468
54.7498
66.4819
80.6197
97.8014
118.408
143.588
173.322
210.568
253.493
309.344
371.233
457.103
552.031
686.169
839.906
1066.12
1489.78
3790.31
12549.6
30359.3
45042.1
8.11453
9.59869
10.8422
12.4448
14.0069
15.7354
17.8273
20.3797
23.4941
27.289
31.9647
37.8054
45.2462
54.9722
66.7274
80.8927
98.0984
118.742
143.929
173.71
210.897
253.891
309.478
371.504
456.598
551.702
683.848
837.598
1063.18
1549.67
4279.48
13838.1
32408.6
44607
8.17157
9.65574
10.911
12.5334
14.1074
15.8377
17.9362
20.4963
23.6223
27.4286
32.1156
37.967
45.4168
55.1496
66.9076
81.0724
98.2639
118.892
144.02
173.75
210.78
253.651
308.863
370.622
454.817
549.347
679.333
831.579
1053.67
1581.41
4705.06
14941.8
33399
44380.7
8.22936
9.71819
10.9834
12.6266
14.2124
15.9447
18.0512
20.6203
23.7605
27.5823
32.2846
38.1519
45.6183
55.3652
67.1384
81.3209
98.5203
119.167
144.276
174.022
210.961
253.838
308.765
370.52
453.961
548.38
676.476
828.374
1051.72
1668.5
5282.21
15986.1
33739.9
44344.7
8.28748
9.78472
11.0582
12.7229
14.3209
16.0554
18.1713
20.7505
23.9055
27.7423
32.4609
38.3456
45.8303
55.5924
67.3836
81.5883
98.8
119.472
144.566
174.338
211.181
254.072
308.689
370.43
453.054
547.288
673.419
824.791
1050.38
1771.63
5873.6
16806.9
33637
44449.9
8.34735
9.85531
11.1364
12.8222
14.4314
16.1688
18.2947
20.8845
24.0549
27.9074
32.6433
38.5466
46.0511
55.8291
67.6399
81.8695
99.0936
119.793
144.867
174.665
211.4
254.299
308.588
370.292
452.099
546.084
670.328
821.167
1051.45
1903.21
6482.95
17442.7
33191.5
44658.1
8.40804
9.9267
11.2147
12.9214
14.5415
16.2821
18.4185
21.0189
24.2051
28.0733
32.8267
38.7491
46.2737
56.0674
67.8978
82.1531
99.3895
120.119
145.174
175.004
211.637
254.556
308.536
370.22
451.254
545.017
667.489
818.089
1057.53
2074.4
7099.4
17886.7
32487.4
44934.8
8.4768
10.0051
11.3011
13.0278
14.6585
16.404
18.5526
21.1656
24.3695
28.256
33.0301
38.9756
46.5257
56.3391
68.1976
82.4907
99.7528
120.531
145.586
175.479
212.033
255.017
308.709
370.438
450.729
544.33
665.148
815.99
1072
2294.97
7714.62
18181.8
31604.1
45208.1
8.55163
10.0884
11.3927
13.1384
14.7788
16.53
18.691
21.3166
24.538
28.442
33.2357
39.2026
46.7751
56.6038
68.483
82.8041
100.076
120.882
145.909
175.823
212.252
255.218
308.561
370.171
449.651
542.822
661.894
812.445
1083.52
2514.66
8242.68
18254.2
30634.8
45531
8.62789
10.1734
11.4862
13.2509
14.9009
16.6593
18.8342
21.4743
24.7157
28.6402
33.4578
39.4522
47.0555
56.9082
68.8243
83.1959
100.508
121.385
146.436
176.449
212.845
255.938
309.073
370.831
449.732
542.898
660.789
813.882
1127.49
2852.42
8837.34
18251.9
29672.1
45748.6
8.71188
10.2649
11.5866
13.3689
15.0274
16.7938
18.9826
21.6371
24.8977
28.8414
33.6809
39.6997
47.3285
57.1986
69.1404
83.5472
100.877
121.791
146.822
176.869
213.147
256.232
309.026
370.656
448.769
541.451
657.776
811.512
1157.41
3142.4
9287.04
18059
28670.4
45962.4
8.80686
10.3656
11.6981
13.4964
15.1626
16.9392
19.1432
21.8139
25.0949
29.0595
33.9227
39.9678
47.6242
57.5119
69.4814
83.9253
101.273
122.226
147.238
177.317
213.484
256.559
309.04
370.547
447.955
540.205
655.181
810.87
1203.86
3473.38
9702.02
17730.6
27710.3
46172.1
8.9078
10.472
11.8167
13.6303
15.3044
17.0936
19.3149
22.0047
25.3094
29.2989
34.1914
40.2707
47.9649
57.8806
69.897
84.4042
101.804
122.841
147.893
178.085
214.236
257.437
309.739
371.359
448.255
540.419
654.739
817.623
1298.18
3899
10145.6
17384.7
26862.1
46293.1
9.01103
10.5805
11.9369
13.7649
15.4459
17.248
19.4858
22.1939
25.5207
29.5331
34.4518
40.5609
48.2862
58.2231
70.2739
84.8275
102.256
123.343
148.388
178.628
214.674
257.876
309.855
371.343
447.506
539.181
652.327
819.555
1378.03
4284.39
10530.9
17006.5
26047.1
46386.2
9.12358
10.6973
12.0674
13.9087
15.5968
17.4144
19.6708
22.4002
25.7518
29.7908
34.7404
40.8855
48.6497
58.6153
70.7146
85.3323
102.812
123.978
149.053
179.387
215.392
258.676
310.441
371.95
447.586
539.065
651.965
831.239
1516.29
4747.91
10874.1
16677.9
25295.2
46432.4
9.23472
10.8139
12.1976
14.0523
15.7479
17.5826
19.8588
22.6115
25.99
30.0587
35.0435
41.2306
49.042
59.0464
71.2111
85.9158
103.478
124.764
149.928
180.428
216.49
259.976
311.673
373.411
448.747
540.397
654.789
859.936
1731.66
5276.35
11154
16409
24713.3
46368.3
9.34676
10.9313
12.3281
14.1955
15.898
17.7499
20.0451
22.82
26.2239
30.3202
35.3371
41.562
49.414
59.4507
71.6691
86.4445
104.068
125.442
150.652
181.257
217.297
260.867
312.369
374.111
448.957
540.422
655.974
886.255
1942.06
5735.46
11317
16105.4
24079.2
46205.3
9.47551
11.0633
12.4758
14.3533
16.0627
17.9344
20.2501
23.0493
26.4797
30.605
35.6552
41.9186
49.8108
59.8771
72.1465
86.9866
104.661
126.107
151.345
182.021
218.014
261.609
312.903
374.559
448.932
540.165
657.557
919.561
2177.33
6162.96
11383.6
15777
23510.7
46068.8
9.61778
11.2073
12.6377
14.5227
16.2394
18.1327
20.4701
23.2952
26.7528
30.9079
35.992
42.2941
50.2251
60.3185
72.6356
87.5342
105.252
126.756
152.008
182.728
218.653
262.226
313.281
374.764
448.61
539.502
658.862
955.946
2415.89
6542.9
11379.3
15419.8
22908.8
46005.6
9.76105
11.3528
12.8003
14.6924
16.4162
18.3313
20.6896
23.5399
27.0234
31.2069
36.3224
42.6597
50.6245
60.7403
73.0961
88.0417
105.786
127.328
152.566
183.298
219.109
262.605
313.354
374.574
447.795
538.22
658.993
991.181
2646.63
6855.91
11275.7
15035.9
22360.6
46024.9
9.9166
11.5109
12.9786
14.8769
16.6103
18.552
20.9364
23.8186
27.3353
31.5573
36.7175
43.1079
51.1296
61.2938
73.7347
88.7849
106.637
128.313
153.676
184.576
220.498
264.176
314.96
376.362
449.562
540.988
673.207
1097.51
3015.99
7226.06
11199.3
14783.9
22060.5
45963.7
10.0893
11.6852
13.175
15.0771
16.8216
18.7923
21.2047
24.1212
27.6729
31.9355
37.1425
43.5877
51.6669
61.8791
74.4043
89.5549
107.506
129.298
154.756
185.779
221.737
265.494
316.162
377.537
450.451
542.568
685.555
1198.23
3343.05
7493.52
11086
14490.4
21663.2
45788.4
10.2626
11.8617
13.3728
15.2789
17.0357
19.0366
21.478
24.43
28.018
32.3233
37.5793
44.0822
52.222
62.4876
75.1041
90.3627
108.423
130.34
155.909
187.066
223.09
266.951
317.57
378.985
451.84
545.611
706.691
1336.49
3694.64
7724.5
10980.8
14236.4
21354.6
45614.5
10.4387
12.0455
13.5784
15.4882
17.2594
19.2924
21.765
24.7551
28.3821
32.7335
38.0429
44.6086
52.8148
63.1413
75.8609
91.2403
109.427
131.488
157.197
188.515
224.653
268.654
319.297
380.827
453.869
550.708
739.152
1510.07
4049.95
7914.17
10879.1
14009.3
21081.7
45397.1
10.6314
12.2494
13.8062
15.7178
17.5062
19.5744
22.0814
25.1126
28.7815
33.1825
38.549
45.1807
53.4557
63.8447
76.6703
92.1699
110.481
132.675
158.509
189.957
226.17
270.248
320.84
382.375
455.569
555.957
775
1686.79
4359.04
8046.41
10761.1
13764.1
20745.7
45170.1
10.8327
12.4619
14.0421
15.9555
17.7637
19.8688
22.4123
25.487
29.2001
33.6539
39.081
45.7829
54.131
64.589
77.5297
93.1584
111.605
133.943
159.92
191.51
227.824
271.998
322.592
384.203
457.91
564.012
825.287
1893.04
4664.07
8143.13
10636.5
13541.5
20476.4
44979.7
11.0424
12.6825
14.2857
16.2018
18.0328
20.1771
22.7599
25.8812
29.6424
34.1539
39.6478
46.4273
54.8576
65.3971
78.4714
94.25
112.862
135.374
161.505
193.309
229.799
274.13
324.833
386.685
461.604
577.385
898.026
2135.96
4970.27
8216.04
10521.3
13357.4
20273.5
44753.3
11.2751
12.9245
14.5516
16.4703
18.3283
20.5153
23.1416
26.3136
30.1276
34.7028
40.2704
47.1351
55.6554
66.286
79.5079
95.4494
114.241
136.936
163.269
195.232
231.877
276.393
327.213
389.351
466.051
594.852
985.925
2390.36
5253.3
8253
10399.5
13171.8
20048.7
44486.7
11.5213
13.1798
14.8307
16.7535
18.6427
20.8756
23.5495
26.7767
30.6491
35.295
40.9452
47.9053
56.5286
67.2674
80.6617
96.7934
115.802
138.716
165.305
197.497
234.305
279.078
330.085
392.943
473.051
622.883
1107.57
2683.07
5542.75
8279.57
10298
13031.2
19895.2
44199.2
11.7823
13.4454
15.1199
17.0488
18.9726
21.2536
23.9783
27.2637
31.1984
35.9201
41.6589
48.7214
57.4556
68.3143
81.8953
98.2314
117.473
140.621
167.484
199.907
236.955
281.888
333.155
396.948
481.948
659.776
1250.6
2980.62
5787.97
8287.29
10196.3
12887.7
19714.5
43861
12.0605
13.7298
15.4285
17.366
19.3298
21.6631
24.4439
27.7933
31.7979
36.605
42.4443
49.6231
58.4854
69.4871
83.2873
99.8638
119.384
142.813
170.013
202.725
240.148
285.363
337.082
402.432
495.994
715.166
1433.61
3301.5
6013.64
8298.16
10110.6
12781.4
19587
43483.7
12.3578
14.0349
15.7583
17.708
19.717
22.1068
24.9493
28.3689
32.4515
37.3541
43.3061
50.6156
59.6243
70.7939
84.8469
101.701
121.546
145.303
172.898
205.956
243.832
289.423
341.97
410.103
517.152
792.684
1652.1
3627.39
6213.36
8306.93
10033.7
12689.9
19464.8
43044.8
12.6658
14.3526
16.1015
18.0677
20.1267
22.5768
25.4866
28.9824
33.1517
38.1607
44.2395
51.697
60.8749
72.2452
86.5957
103.78
124.016
148.175
176.26
209.766
248.235
294.418
348.446
421.628
550.952
904.081
1916.73
3965.06
6402.54
8328.03
9982.8
12642.5
19396.9
42518.6
12.9914
14.6901
16.4659
18.4539
20.5686
23.0842
26.0682
29.6484
33.9156
39.0451
45.2685
52.8964
62.2735
73.8874
88.5947
106.181
126.899
151.567
180.274
214.385
253.675
300.867
357.67
440.529
606.928
1065.62
2238.24
4318.92
6589.1
8365.92
9963.29
12641.5
19382.7
41861
13.334
15.0459
16.8495
18.8636
21.0373
23.621
26.6831
30.3522
34.7242
39.9823
46.3606
54.172
63.7681
75.6569
90.7649
108.811
130.086
155.361
184.818
219.707
260.104
308.969
370.65
469.902
689.766
1271.6
2588.37
4666.87
6787.59
8451.29
10012.8
12729.5
19414.1
41062.1
13.6334
15.3586
17.1873
19.2279
21.4548
24.0993
27.232
30.9819
35.4502
40.8269
47.3491
55.3327
65.139
77.2983
92.7995
111.307
133.152
159.068
189.334
225.13
266.918
318.338
387.755
511.833
802.186
1519.13
2959.64
5005.44
6993.94
8573.94
10126
12900.3
19611.9
40255.1
13.8958
15.634
17.4858
19.5522
21.8262
24.5249
27.7206
31.5434
36.0993
41.5843
48.2385
56.382
66.3865
78.8063
94.6861
113.648
136.062
162.643
193.767
230.614
274.163
329.33
410.025
567.421
939.437
1789.22
3337.67
5385.99
7302.73
8817.92
10432.5
13388.3
20105
38980.3
5.33054
5.98268
6.74028
7.61968
8.67338
9.94999
11.5069
13.4273
15.8263
18.862
22.7582
27.8362
34.5775
43.8015
55.4467
70.0937
88.4243
111.278
139.715
174.976
218.863
272.92
341.575
423.673
537.758
661.366
865.287
1040.86
1426.2
1802.25
2658.5
3667.86
4740.83
3251.15
5.49602
6.1636
6.93035
7.82037
8.88911
10.184
11.7617
13.7053
16.1298
19.1927
23.1167
28.2215
34.9854
44.2165
55.8519
70.4707
88.7462
111.508
139.795
174.839
218.362
271.991
339.722
421.214
532.576
652.453
852.278
1017.49
1396.77
1744
2596.68
3584.91
4851.04
2990.07
5.66987
6.35104
7.13171
8.03667
9.12156
10.4338
12.0297
13.9921
16.4354
19.516
23.4548
28.5688
35.3302
44.536
56.1324
70.6909
88.8728
111.497
139.582
174.345
217.434
270.527
337.219
417.909
526.325
642.908
839.47
990.606
1367.39
1672.49
2523.84
3455.57
4994.97
2738.36
5.82518
6.52023
7.31459
8.23299
9.33153
10.6584
12.2699
14.2482
16.7072
19.8022
23.7526
28.8727
35.6316
44.8175
56.3765
70.8738
88.9686
111.476
139.403
173.957
216.733
269.46
335.431
415.637
521.966
640.27
832.638
975.54
1345.96
1630.37
2479.55
3352.45
5082.02
2544.85
5.99463
6.69669
7.50041
8.43044
9.54131
10.8807
12.5046
14.4945
16.963
20.0642
24.015
29.126
35.8598
44.9892
56.4684
70.8633
88.8264
111.165
138.875
173.157
215.564
267.858
333.063
412.687
516.88
635.452
823.71
960.341
1322.08
1584.5
2421.69
3227.85
5169.1
2352.78
6.14468
6.85265
7.66502
8.60547
9.72535
11.0724
12.7027
14.697
17.1665
20.2633
24.2013
29.2871
35.9763
45.0303
56.4115
70.6772
88.4766
110.62
138.103
172.123
214.208
266.157
330.815
410.134
512.903
631.996
815.329
958.187
1314.37
1563.45
2395.45
3146.49
5148.77
2194.49
6.29825
7.0095
7.82702
8.77396
9.89938
11.2507
12.884
14.8781
17.342
20.4254
24.3393
29.3846
36.0073
44.947
56.1751
70.2511
87.8272
109.713
136.896
170.574
212.269
263.816
327.932
406.939
508.495
628.229
807.727
958.655
1313.84
1558.75
2380.44
3105.34
5150.97
2074.59
6.42434
7.13401
7.95246
8.90232
10.0284
11.3767
13.0023
14.9822
17.4233
20.4719
24.3335
29.3005
35.8047
44.5641
55.5654
69.3565
86.5775
108.028
134.69
167.766
208.764
259.535
322.699
400.887
500.682
620.519
794.713
956.959
1310.17
1538.85
2354.34
3019.53
5245.85
1972.37
6.53118
7.23665
8.05246
8.99995
10.1196
11.4559
13.0633
15.017
17.4203
20.4146
24.1979
29.0512
35.39
43.899
54.5658
67.9285
84.6236
105.445
131.363
163.566
203.548
253.17
314.97
391.741
489.216
608.277
775.345
951.152
1298.71
1501.01
2310.4
2867.03
5377.02
1828.87
6.61516
7.31375
8.12267
9.06269
10.1701
11.488
13.0696
14.9874
17.3403
20.2635
23.9461
28.6564
34.7898
42.996
53.2766
66.1633
82.2788
102.392
127.453
158.648
197.473
245.791
306.089
381.328
476.707
594.792
756.747
936.94
1282.41
1491.32
2284.64
2771.62
5379.48
1716.9
6.67457
7.36259
8.15989
9.0872
10.1769
11.4689
13.0154
14.8855
17.173
20.006
23.5633
28.0983
33.9831
41.8269
51.6378
63.92
79.2684
98.434
122.366
152.246
189.553
236.158
294.547
367.751
460.586
576.859
733.647
917.291
1240.11
1480.46
2264.45
2677.41
5422.86
1586.38
6.70791
7.38262
8.16404
9.07314
10.1382
11.3972
12.8994
14.7105
16.9182
19.6425
23.0504
27.378
32.9713
40.3926
49.6582
61.251
75.7453
93.8679
116.542
144.92
180.466
225.056
281.146
351.821
441.74
555.732
707.917
893.297
1198.73
1464.6
2282.24
2636.62
5427.42
1495.97
6.70723
7.36497
8.1258
9.01081
10.0449
11.2624
12.7099
14.4489
16.5603
19.1549
22.3867
26.472
31.7269
38.6614
47.2946
58.0752
71.5413
88.3751
109.449
135.876
169.086
210.927
263.83
330.946
416.824
526.884
673.157
857.655
1145.81
1434.7
2261.96
2571.27
5481.74
1364.84
6.6703
7.31001
8.0474
8.90334
9.89987
11.0682
12.4515
14.1062
16.1067
18.5537
21.5868
25.4013
30.2809
36.6795
44.6183
54.5079
66.8456
82.2674
101.595
125.885
156.508
195.255
244.496
307.422
388.546
493.808
634.028
815.921
1089.58
1396.8
2176.27
2536.19
5542.19
1255.76
6.61488
7.23282
7.94243
8.76415
9.71786
10.8318
12.1452
13.7094
15.5917
17.8823
20.7057
24.2354
28.7218
34.5614
41.7752
50.7302
61.8748
75.7849
93.2109
115.132
142.834
178.024
223.001
280.917
356.214
455.021
587.249
763.347
1021.99
1342.31
2042.24
2502.4
5582.88
1151.57
6.50978
7.10474
7.78448
8.56856
9.47499
10.5289
11.7655
13.2307
14.9841
17.1057
19.7039
22.9294
26.998
32.2477
38.6982
46.6691
56.5539
68.8608
84.2568
103.622
128.129
159.357
199.465
251.451
319.58
409.954
532.106
698.769
940.771
1264.25
1892.56
2459.03
5505.58
1015.54
6.40048
6.96987
7.61694
8.35992
9.21527
10.2053
11.3611
12.723
14.3434
16.2913
18.6605
21.5797
25.2317
29.8996
35.602
42.6113
51.2655
62.0032
75.4035
92.2391
113.552
140.77
175.877
221.685
282.26
363.601
474.915
629.983
854.838
1175.1
1746.71
2409.07
5224.93
889.293
6.24681
6.79163
7.40678
8.10973
8.91504
9.8424
10.919
12.1801
13.6708
15.4507
17.5996
20.2261
23.4831
27.6037
32.6074
38.7237
46.2396
55.5288
67.0872
81.5818
99.9217
123.367
153.694
193.461
246.433
318.302
417.901
559.287
766.695
1076.21
1595.57
2337.42
4734.45
767.835
6.14668
6.6617
7.24041
7.89782
8.64775
9.50759
10.5009
11.658
13.0177
14.6304
16.5631
18.9062
21.785
25.3876
29.7357
35.0192
41.4778
49.4242
59.2747
71.5925
87.1506
107.024
132.749
166.572
211.858
273.802
360.633
485.935
672.734
962.204
1434.85
2239.56
4156.06
629.795
5.90047
6.38841
6.93438
7.55186
8.25333
9.05395
9.9738
11.0385
12.2803
13.7413
15.477
17.5611
20.0942
23.2237
26.974
31.5001
36.9993
43.7301
52.0385
62.3957
75.4536
91.9779
113.183
140.852
177.681
227.885
298.302
400.609
555.544
803.237
1223.84
2004.05
3697.44
527.105
5.74658
6.20979
6.72333
7.29847
7.94656
8.68085
9.51813
10.4789
11.589
12.882
14.4023
16.2086
18.3791
21.0253
24.1671
27.9207
32.4325
37.8922
44.5504
52.7451
62.9427
75.9374
92.7691
114.982
144.934
186.358
245.403
332.737
467.835
689.182
1077.71
1830.46
3440.97
445.313
5.82034
6.27595
6.78207
7.34905
7.98738
8.7098
9.53379
10.4797
11.5668
12.8287
14.3003
16.035
18.1008
20.593
23.5498
27.0849
31.3436
36.5156
42.8531
50.6975
60.5181
72.9832
89.063
110.203
138.62
177.841
233.731
316.637
445.722
660.771
1045.96
1842.27
3558.49
352.867
5.32338
5.71648
6.14809
6.62741
7.16334
7.75655
8.39626
9.09334
9.929
10.9034
12.0798
13.4564
15.0758
17.0007
19.2734
21.979
25.2276
29.1648
33.9876
39.9663
47.4789
57.0661
69.5181
86.0461
108.531
140.019
185.684
254.802
365.149
553.916
906.23
1662.29
3459.19
309.755
5.43026
5.81472
6.21965
6.64997
7.11133
7.6069
8.13517
8.70027
9.33254
10.0634
10.9222
11.9385
13.1515
14.6165
16.3912
18.5551
21.2167
24.5228
28.6736
33.9451
40.7242
49.5651
61.2851
76.735
97.5175
126.327
167.792
230.327
330.389
502.798
832.648
1541.42
3573.27
277.03
0.254686
0.254626
0.254566
0.254506
0.254448
0.25439
0.254333
0.254277
0.254221
0.254166
0.254112
0.254059
0.254006
0.253955
0.253905
0.253856
0.253809
0.253764
0.253722
0.253686
0.253656
0.25364
0.253648
0.253704
0.253832
0.254081
0.254534
0.25534
0.256706
0.258954
0.26263
0.26863
0.27839
0.294153
0.319313
0.35878
0.419327
0.509653
0.640135
0.821844
1.06526
1.37805
1.76313
2.21474
2.71212
3.2382
3.76407
4.32213
4.83465
0.254687
0.254627
0.254567
0.254509
0.25445
0.254393
0.254336
0.25428
0.254224
0.254169
0.254115
0.254062
0.25401
0.253958
0.253908
0.253859
0.253812
0.253767
0.253725
0.253688
0.253658
0.253642
0.253649
0.253704
0.253832
0.254081
0.254536
0.255347
0.256726
0.258994
0.262705
0.26876
0.278607
0.294503
0.319872
0.359679
0.420791
0.512088
0.644287
0.829049
1.07759
1.39856
1.79566
2.26352
2.78049
3.32927
3.87743
4.4554
4.97959
0.254688
0.254628
0.254569
0.25451
0.254452
0.254395
0.254338
0.254282
0.254227
0.254173
0.254119
0.254065
0.254013
0.253962
0.253911
0.253862
0.253815
0.25377
0.253728
0.253691
0.253661
0.253644
0.253651
0.253705
0.253833
0.254082
0.25454
0.255359
0.256753
0.259051
0.262817
0.268972
0.278994
0.295191
0.321068
0.361713
0.424182
0.517631
0.653131
0.842772
1.09824
1.42868
1.83814
2.32085
2.85451
3.42142
3.99015
4.58794
5.13807
0.254688
0.254629
0.25457
0.254512
0.254455
0.254398
0.254342
0.254286
0.254231
0.254176
0.254123
0.254069
0.254017
0.253966
0.253916
0.253866
0.253819
0.253774
0.253732
0.253694
0.253664
0.253646
0.253653
0.253706
0.253834
0.254084
0.254545
0.255371
0.256781
0.259108
0.262925
0.269166
0.279328
0.295745
0.321958
0.363115
0.426351
0.520958
0.658223
0.85059
1.11023
1.44693
1.86542
2.36019
2.90895
3.49368
4.08273
4.70215
5.2769
0.254689
0.254631
0.254573
0.254515
0.254458
0.254401
0.254346
0.25429
0.254235
0.254181
0.254127
0.254074
0.254022
0.253971
0.25392
0.253871
0.253824
0.253778
0.253736
0.253698
0.253667
0.253649
0.253655
0.253708
0.253835
0.254086
0.25455
0.255384
0.256811
0.259171
0.263049
0.269398
0.27974
0.296457
0.323156
0.365081
0.429516
0.525967
0.66602
0.862524
1.12815
1.47328
1.90316
2.41219
2.97801
3.58177
4.1924
4.83405
5.43584
0.25469
0.254632
0.254574
0.254517
0.254461
0.254405
0.254349
0.254294
0.254239
0.254185
0.254132
0.254079
0.254027
0.253976
0.253925
0.253876
0.253829
0.253783
0.25374
0.253702
0.253671
0.253653
0.253658
0.25371
0.253838
0.254089
0.254557
0.255402
0.256849
0.259248
0.263195
0.269664
0.280209
0.297254
0.324465
0.367174
0.432779
0.530949
0.673481
0.873531
1.14416
1.49624
1.93556
2.45671
3.03712
3.65724
4.28792
4.94947
5.57572
0.25469
0.254633
0.254576
0.25452
0.254464
0.254408
0.254353
0.254298
0.254244
0.25419
0.254137
0.254084
0.254032
0.253981
0.25393
0.253881
0.253833
0.253788
0.253745
0.253706
0.253675
0.253656
0.253661
0.253712
0.253839
0.254092
0.254564
0.255417
0.256884
0.259319
0.263333
0.269919
0.28066
0.298025
0.325745
0.369241
0.436036
0.535971
0.681078
0.884827
1.16068
1.52001
1.96914
2.50298
3.0984
3.73631
4.38775
5.06908
5.72056
0.254691
0.254634
0.254578
0.254522
0.254466
0.254411
0.254356
0.254301
0.254247
0.254194
0.254141
0.254088
0.254036
0.253985
0.253935
0.253885
0.253838
0.253792
0.253749
0.25371
0.253678
0.253659
0.253663
0.253714
0.253842
0.254095
0.254571
0.255435
0.256921
0.259395
0.263478
0.270182
0.281121
0.298803
0.327016
0.371257
0.439143
0.540643
0.687951
0.894755
1.1748
1.53983
1.99661
2.54039
3.14825
3.80023
4.46905
5.16578
5.84027
0.254692
0.254635
0.25458
0.254524
0.254469
0.254414
0.254359
0.254305
0.254251
0.254198
0.254145
0.254092
0.254041
0.253989
0.253939
0.25389
0.253842
0.253796
0.253753
0.253714
0.253682
0.253662
0.253666
0.253716
0.253843
0.254098
0.254578
0.25545
0.256956
0.259465
0.263613
0.270429
0.281553
0.299532
0.328203
0.373128
0.442001
0.544889
0.694107
0.903504
1.18705
1.55677
2.01985
2.57174
3.18993
3.8538
4.5379
5.24814
5.94282
0.254692
0.254636
0.254581
0.254526
0.254471
0.254416
0.254362
0.254308
0.254254
0.254201
0.254148
0.254096
0.254044
0.253993
0.253943
0.253894
0.253846
0.2538
0.253756
0.253717
0.253685
0.253665
0.253668
0.253718
0.253845
0.254101
0.254585
0.255467
0.256991
0.259539
0.263752
0.270682
0.281993
0.300269
0.329391
0.374975
0.44478
0.548938