/*--------------------------------*- C++ -*----------------------------------*\
| =========                 |                                                 |
| \\      /  F ield         | OpenFOAM: The Open Source CFD Toolbox           |
|  \\    /   O peration     | Version:  2.3.0                                 |
|   \\  /    A nd           | Web:      www.OpenFOAM.org                      |
|    \\/     M anipulation  |                                                 |
\*---------------------------------------------------------------------------*/
FoamFile
{
    version     2.0;
    format      ascii;
    class       volVectorField;
    location    "100";
    object      U;
}
// * * * * * * * * * * * * * * * * * * * * * * * * * * * * * * * * * * * * * //

dimensions      [0 1 -1 0 0 0 0];

internalField   nonuniform List<vector> 
28552
(
(93.6414 6.48045e-19 0.566704)
(93.4381 -9.5099e-19 0.230255)
(93.2186 -3.38866e-19 -0.114667)
(92.9942 1.13279e-18 -0.465613)
(92.755 -1.95705e-18 -0.852514)
(92.5022 -4.69271e-20 -1.28187)
(92.239 1.32729e-18 -1.75537)
(91.9657 -1.33367e-18 -2.27975)
(91.6829 9.61864e-19 -2.86374)
(91.3928 1.36753e-20 -3.51655)
(91.0988 1.0352e-18 -4.2487)
(90.8056 -5.35717e-19 -5.07341)
(90.5206 5.60115e-19 -6.00426)
(90.253 -3.05373e-19 -7.06518)
(90.0318 -3.09645e-19 -8.22176)
(89.8808 3.77293e-19 -9.4078)
(89.8058 -8.3016e-19 -10.6081)
(89.8094 4.56454e-19 -11.8099)
(89.8915 1.0024e-18 -12.9973)
(90.0481 -5.32793e-19 -14.1629)
(90.2743 0 -15.2779)
(90.5592 -2.84646e-19 -16.3733)
(90.9015 3.44917e-19 -17.3384)
(91.2721 2.91653e-19 -18.4035)
(91.6988 -1.60547e-19 -19.0628)
(92.0756 3.28525e-19 -20.2736)
(92.6111 2.25334e-20 -20.3837)
(92.8793 1.74113e-19 -22.0624)
(93.6791 -1.31472e-20 -21.1188)
(93.3504 0 -24.0772)
(95.0103 0 -20.771)
(93.1342 0 -27.1465)
(98.2414 -2.30615e-19 -19.1531)
(80.5184 2.28884e-19 -27.7261)
(94.0869 -9.26035e-19 0.257179)
(93.895 1.58731e-18 -0.0995658)
(93.694 -6.54385e-19 -0.451643)
(93.4961 3.5328e-19 -0.803814)
(93.2859 3.53002e-19 -1.19628)
(93.066 0 -1.63123)
(92.8397 4.34948e-19 -2.10844)
(92.607 -3.95405e-19 -2.63489)
(92.3687 -4.6526e-19 -3.2185)
(92.127 4.74961e-19 -3.86742)
(91.8855 -1.49266e-18 -4.591)
(91.649 1.55978e-18 -5.40102)
(91.4256 -1.08646e-18 -6.30986)
(91.2235 -5.19591e-19 -7.33902)
(91.0645 6.43778e-19 -8.45268)
(90.9683 3.19082e-19 -9.58658)
(90.94 0 -10.7269)
(90.9808 3.96417e-19 -11.8631)
(91.0898 -4.36907e-19 -12.9802)
(91.2629 -2.15394e-19 -14.0751)
(91.4951 -2.26858e-19 -15.1158)
(91.7761 0 -16.1475)
(92.1057 0 -17.038)
(92.4559 0 -18.0608)
(92.8562 0 -18.6559)
(93.2071 -4.16159e-19 -19.8376)
(93.6953 2.92861e-19 -19.9109)
(93.9319 1.32849e-19 -21.5826)
(94.6997 -2.24265e-19 -20.6381)
(94.3189 0 -23.6663)
(96.0032 0 -20.3431)
(94.0531 0 -26.8166)
(99.2802 1.30468e-19 -19.3895)
(82.1856 -3.30445e-19 -27.1352)
(94.5432 5.65452e-19 -0.0275522)
(94.3726 -2.49652e-20 -0.403776)
(94.1956 3.26554e-19 -0.758773)
(94.024 1.31952e-18 -1.10952)
(93.8418 -1.03291e-18 -1.50481)
(93.6517 -3.86201e-19 -1.94103)
(93.4578 1.13196e-18 -2.41719)
(93.2602 3.9805e-19 -2.94073)
(93.06 -4.04482e-19 -3.51882)
(92.8596 0 -4.15874)
(92.6625 -4.22663e-19 -4.86894)
(92.4734 -4.6774e-19 -5.65996)
(92.3001 4.75298e-19 -6.54258)
(92.1521 5.17962e-19 -7.5367)
(92.0474 0 -8.60668)
(92.0006 -3.1789e-19 -9.68996)
(92.0148 -3.2217e-19 -10.7733)
(92.0895 8.91808e-21 -11.848)
(92.2236 5.56593e-19 -12.8994)
(92.4125 3.99243e-19 -13.9288)
(92.6528 6.22175e-19 -14.9001)
(92.9321 -2.23411e-19 -15.8737)
(93.2585 0 -16.693)
(93.5928 0 -17.6739)
(93.9864 2.1911e-19 -18.2055)
(94.3166 -2.92127e-19 -19.3601)
(94.7961 0 -19.3809)
(95.0152 -1.61881e-19 -21.0549)
(95.8043 1.3217e-19 -20.0526)
(95.4227 -5.75521e-21 -23.1332)
(97.1926 2.20414e-20 -19.781)
(95.2828 9.09788e-20 -26.1165)
(100.687 6.21628e-21 -19.1629)
(84.1341 -3.43963e-20 -26.3458)
(95.0217 1.25594e-19 -0.265574)
(94.8778 -1.59061e-19 -0.666921)
(94.7291 0 -1.02366)
(94.5842 4.39781e-19 -1.37367)
(94.4306 -6.22219e-19 -1.77096)
(94.2716 1.43483e-19 -2.20665)
(94.1107 -3.38396e-19 -2.67992)
(93.9487 5.30868e-19 -3.19877)
(93.787 -1.91604e-19 -3.7694)
(93.6281 0 -4.39823)
(93.4755 6.13039e-19 -5.09293)
(93.3337 6.1157e-19 -5.86293)
(93.2099 -9.33858e-21 -6.71749)
(93.1122 -2.15093e-19 -7.67433)
(93.0556 2.22466e-19 -8.69835)
(93.0513 0 -9.72964)
(93.1015 2.62041e-19 -10.7559)
(93.2057 0 -11.7701)
(93.3621 -4.89417e-19 -12.7576)
(93.5663 1.61862e-19 -13.7244)
(93.8151 -1.93384e-19 -14.6286)
(94.0964 -1.74658e-19 -15.5461)
(94.4193 2.75909e-19 -16.2967)
(94.7476 -1.77056e-19 -17.2314)
(95.1293 4.1063e-19 -17.6979)
(95.4608 -1.40496e-19 -18.8117)
(95.9263 0 -18.7586)
(96.1571 -4.79158e-20 -20.4109)
(96.966 -1.31852e-19 -19.2688)
(96.5911 1.65433e-19 -22.3844)
(98.4622 3.01267e-20 -18.8117)
(96.5457 -4.44898e-20 -24.9274)
(101.853 -6.21478e-21 -18.0703)
(85.232 -2.22229e-20 -25.1281)
(95.515 -2.38707e-19 -0.451215)
(95.3922 -1.36479e-20 -0.873112)
(95.2707 -1.23729e-19 -1.22799)
(95.1492 -2.71822e-19 -1.57566)
(95.0205 -1.33244e-19 -1.97227)
(94.8901 -2.93947e-19 -2.40488)
(94.7601 -1.43552e-19 -2.87299)
(94.6307 -1.93988e-20 -3.38481)
(94.5041 1.57233e-19 -3.94561)
(94.3826 -4.95412e-19 -4.56109)
(94.2699 -1.87136e-19 -5.23819)
(94.1704 -1.92846e-19 -5.98542)
(94.091 -3.69311e-19 -6.81083)
(94.0399 1.7222e-19 -7.7303)
(94.029 -6.10026e-19 -8.70906)
(94.0659 1.06305e-19 -9.6897)
(94.1518 2.14955e-19 -10.6606)
(94.2853 -1.03009e-20 -11.6168)
(94.4643 -1.37357e-20 -12.5429)
(94.6839 -2.84454e-19 -13.4499)
(94.9429 6.38303e-20 -14.2889)
(95.2267 0 -15.1526)
(95.552 -8.2301e-20 -15.8345)
(95.8718 -1.3412e-19 -16.7244)
(96.2522 -2.12813e-20 -17.1186)
(96.5629 1.41299e-19 -18.2024)
(97.0277 1.09239e-19 -18.06)
(97.205 -1.20261e-19 -19.7222)
(98.0243 7.72561e-20 -18.4523)
(97.5583 -8.53879e-20 -21.6253)
(99.3841 1.14418e-20 -18.0051)
(97.3842 -1.99036e-21 -24.0279)
(102.51 0 -17.3301)
(85.9712 -3.67807e-21 -24.0386)
(96.0096 1.65205e-19 -0.584659)
(95.9065 -6.72812e-20 -1.0296)
(95.8145 1.80701e-19 -1.37911)
(95.7197 -1.17204e-19 -1.72423)
(95.6176 6.99499e-19 -2.11887)
(95.5159 2.06755e-19 -2.54666)
(95.4164 -1.23234e-19 -3.00797)
(95.3195 -4.3232e-19 -3.51102)
(95.2276 5.77106e-19 -4.06016)
(95.1431 -3.6527e-19 -4.66047)
(95.0695 3.02762e-19 -5.31817)
(95.011 0 -6.04079)
(94.9741 1.71347e-19 -6.83536)
(94.9666 -1.71804e-19 -7.71611)
(94.9971 2.6598e-19 -8.64884)
(95.0699 -2.82874e-19 -9.57885)
(95.1858 8.0132e-21 -10.4953)
(95.3432 4.12235e-19 -11.3949)
(95.5402 -2.68991e-19 -12.2614)
(95.7718 -4.85934e-20 -13.1113)
(96.0372 -6.36023e-20 -13.8881)
(96.3216 8.07027e-20 -14.7005)
(96.6407 -2.16043e-19 -15.3202)
(96.9528 1.32429e-19 -16.1677)
(97.3101 -8.73164e-20 -16.5049)
(97.613 1.65522e-19 -17.5569)
(98.0314 -8.53209e-20 -17.3568)
(98.1976 0 -19.013)
(98.9796 0 -17.661)
(98.4934 6.31776e-21 -20.8437)
(100.285 1.43137e-20 -17.1731)
(98.2735 -2.55311e-20 -23.0699)
(103.328 0 -16.5051)
(86.8261 5.6183e-21 -22.9941)
(96.5066 -5.09721e-20 -0.674437)
(96.4248 3.29028e-19 -1.13704)
(96.3566 -4.65742e-19 -1.47758)
(96.2844 -2.47883e-20 -1.81819)
(96.2063 -3.37622e-20 -2.20864)
(96.1309 -8.75923e-20 -2.62961)
(96.0595 -2.70425e-20 -3.0824)
(95.9924 0 -3.57497)
(95.9321 -2.84087e-20 -4.11079)
(95.8812 -9.77382e-20 -4.6945)
(95.8428 -2.94558e-20 -5.33163)
(95.8213 -2.61027e-19 -6.02882)
(95.8229 3.64855e-19 -6.79215)
(95.855 -2.50417e-21 -7.63437)
(95.9238 -3.56881e-19 -8.52196)
(96.0304 2.63439e-19 -9.40284)
(96.175 -2.93918e-19 -10.2666)
(96.3553 1.66624e-19 -11.1121)
(96.5695 2.9665e-20 -11.9216)
(96.8119 -1.07954e-19 -12.7174)
(97.084 1.71934e-19 -13.4345)
(97.3684 -1.12406e-19 -14.1989)
(97.6872 1.65561e-19 -14.7561)
(97.9901 -1.81065e-20 -15.5663)
(98.3466 4.66529e-20 -15.8346)
(98.6277 -4.3353e-20 -16.8727)
(99.0578 5.11449e-22 -16.5759)
(99.1666 5.78421e-22 -18.2701)
(99.9897 -1.63126e-21 -16.7853)
(99.4208 0 -20.0307)
(101.235 1.56208e-21 -16.2919)
(99.1744 -1.15171e-19 -22.1139)
(104.112 1.19542e-19 -15.7015)
(87.6752 -5.58604e-21 -21.9859)
(96.992 -5.03395e-19 -0.724461)
(96.9309 1.80103e-20 -1.19147)
(96.8923 1.77582e-19 -1.52534)
(96.8468 2.75814e-20 -1.86017)
(96.7941 -2.56874e-20 -2.24505)
(96.7453 2.6416e-20 -2.65763)
(96.7021 2.99465e-20 -3.10028)
(96.665 -2.0398e-19 -3.58054)
(96.6364 2.39275e-20 -4.10113)
(96.6189 3.12372e-20 -4.6663)
(96.6156 2.98811e-20 -5.28091)
(96.6305 2.16874e-19 -5.95075)
(96.6694 -7.51629e-20 -6.68105)
(96.7392 1.04925e-19 -7.48326)
(96.8432 2.99217e-21 -8.32467)
(96.9801 3.59671e-20 -9.15616)
(97.1496 -1.39731e-20 -9.9677)
(97.3497 -1.13797e-19 -10.76)
(97.5786 1.41211e-19 -11.5135)
(97.8307 1.39115e-21 -12.2565)
(98.1083 9.33376e-20 -12.9156)
(98.3939 -1.11393e-19 -13.6325)
(98.7077 -7.06622e-21 -14.1321)
(99.0074 -2.93755e-21 -14.9034)
(99.3442 0 -15.1193)
(99.6263 0 -16.1302)
(100.014 -2.76678e-20 -15.7888)
(100.131 3.04611e-20 -17.4678)
(100.916 9.83297e-22 -15.9615)
(100.367 0 -19.1678)
(102.113 0 -15.5134)
(100.106 1.76539e-19 -21.1933)
(104.963 -3.88825e-19 -15.0731)
(88.7706 2.68042e-19 -21.0369)
(97.4793 -1.45844e-19 -0.719755)
(97.4279 -4.44111e-21 -1.19924)
(97.4117 1.50259e-19 -1.52447)
(97.3908 -2.65301e-21 -1.85359)
(97.3613 1.58638e-19 -2.23213)
(97.3367 -1.7805e-19 -2.63516)
(97.3191 -2.8378e-21 -3.06662)
(97.309 0 -3.53351)
(97.3089 2.15383e-20 -4.03793)
(97.3213 -2.96558e-21 -4.58379)
(97.3493 1.67201e-19 -5.17539)
(97.3967 -1.53484e-19 -5.81774)
(97.469 0 -6.51528)
(97.5731 0 -7.27819)
(97.7098 -2.98333e-21 -8.07458)
(97.8754 -8.082e-20 -8.85819)
(98.0691 8.24953e-20 -9.61917)
(98.2882 1.54377e-21 -10.3605)
(98.531 -6.48155e-20 -11.0604)
(98.7914 6.48608e-20 -11.7537)
(99.0739 1.23936e-21 -12.3568)
(99.3587 -5.08351e-22 -13.0291)
(99.6712 -1.74998e-21 -13.4689)
(99.9642 -2.26004e-20 -14.2045)
(100.302 8.43627e-20 -14.3491)
(100.569 3.10445e-20 -15.3453)
(100.975 -9.88603e-20 -14.899)
(101.048 -5.04883e-22 -16.6062)
(101.889 -4.10661e-21 -14.9595)
(101.287 -1.60923e-19 -18.1993)
(103.101 1.8099e-19 -14.4356)
(101.086 0 -19.9832)
(105.891 0 -14.0245)
(89.7602 -6.74155e-22 -19.896)
(97.9433 2.61303e-19 -0.679472)
(97.9143 -9.12221e-20 -1.16698)
(97.9217 2.72625e-20 -1.47592)
(97.9237 0 -1.79935)
(97.918 1.5428e-19 -2.16949)
(97.9178 -8.1455e-20 -2.561)
(97.9257 2.80341e-20 -2.97959)
(97.9429 -1.00613e-19 -3.43132)
(97.9715 1.38784e-19 -3.91769)
(98.014 2.72302e-20 -4.44235)
(98.0733 2.64597e-20 -5.00903)
(98.153 7.24875e-21 -5.62208)
(98.258 0 -6.28526)
(98.3948 0 -7.00772)
(98.5618 0 -7.75861)
(98.7528 0 -8.49483)
(98.9671 -4.08103e-20 -9.20653)
(99.2023 4.49353e-20 -9.89877)
(99.4567 -2.20517e-20 -10.5471)
(99.7243 2.81452e-20 -11.1928)
(100.01 0 -11.7425)
(100.294 0 -12.3717)
(100.6 0 -12.7569)
(100.888 -8.77607e-20 -13.4558)
(101.204 2.30014e-19 -13.5446)
(101.466 -1.25746e-19 -14.5112)
(101.834 -4.81355e-21 -14.0107)
(101.912 0 -15.676)
(102.692 3.39526e-19 -14.0095)
(102.134 -3.7348e-19 -17.127)
(103.815 -6.29279e-21 -13.5043)
(101.92 0 -18.7003)
(106.505 -1.03424e-20 -12.9908)
(90.3101 -9.12494e-19 -18.7304)
(98.394 6.94763e-20 -0.599004)
(98.3808 -2.73756e-20 -1.10412)
(98.4093 6.8613e-20 -1.39137)
(98.4318 -1.93416e-19 -1.70936)
(98.4479 6.90466e-20 -2.06974)
(98.4701 6.78842e-20 -2.44842)
(98.5011 -8.50536e-20 -2.85335)
(98.5428 -2.8186e-20 -3.28914)
(98.5972 -1.18872e-19 -3.75683)
(98.6665 6.42218e-20 -4.25985)
(98.7538 5.58765e-20 -4.80135)
(98.8625 -1.08409e-19 -5.38505)
(98.9972 0 -6.01404)
(99.1642 0 -6.6964)
(99.3601 3.81525e-20 -7.40232)
(99.5765 -2.1579e-20 -8.09178)
(99.8121 0 -8.75499)
(100.064 0 -9.39992)
(100.33 -1.83867e-20 -9.99898)
(100.604 2.14619e-20 -10.6016)
(100.892 -5.78686e-20 -11.1026)
(101.173 6.37348e-20 -11.6967)
(101.471 0 -12.032)
(101.746 1.4793e-19 -12.7079)
(102.052 1.67815e-20 -12.7352)
(102.288 -2.19438e-19 -13.7023)
(102.652 0 -13.1066)
(102.663 0 -14.8228)
(103.464 2.62556e-20 -13.0075)
(102.795 -4.8208e-19 -16.2042)
(104.501 1.07616e-18 -12.4126)
(102.496 -6.26615e-19 -17.7533)
(106.901 7.52367e-19 -11.5965)
(90.5204 -9.57716e-19 -17.7244)
(98.8244 -6.77424e-20 -0.48664)
(98.83 -3.011e-20 -0.999451)
(98.8776 6.96229e-20 -1.26579)
(98.9215 2.74113e-20 -1.57643)
(98.9603 -3.92879e-20 -1.92459)
(99.0052 1.55628e-19 -2.28854)
(99.0594 -1.03902e-19 -2.67771)
(99.1257 2.2232e-20 -3.0952)
(99.2059 0 -3.54184)
(99.3022 1.73246e-20 -4.02076)
(99.4173 0 -4.53459)
(99.5544 0 -5.0865)
(99.7176 0 -5.67908)
(99.913 5.22742e-21 -6.31958)
(100.135 -2.04976e-20 -6.97948)
(100.373 -3.81869e-21 -7.62219)
(100.626 0 -8.23765)
(100.892 -3.80816e-20 -8.83624)
(101.169 7.46194e-20 -9.38752)
(101.451 -5.49674e-20 -9.9482)
(101.744 8.452e-20 -10.4033)
(102.028 0 -10.9654)
(102.325 0 -11.2605)
(102.597 0 -11.9225)
(102.887 2.42916e-19 -11.9223)
(103.112 -2.67439e-19 -12.9008)
(103.452 0 -12.3079)
(103.456 -4.26706e-19 -14.0364)
(104.218 8.7113e-19 -12.3203)
(103.572 -4.75525e-19 -15.4727)
(105.178 0 -11.9542)
(103.234 0 -17.1688)
(107.575 -7.63463e-19 -11.6409)
(91.6429 -1.5943e-20 -16.9581)
(99.2297 4.8588e-20 -0.346126)
(99.2516 2.92864e-20 -0.865418)
(99.3168 0 -1.10954)
(99.3805 -4.23435e-20 -1.41247)
(99.4406 -2.68056e-20 -1.74724)
(99.5062 -2.56208e-20 -2.0957)
(99.5815 3.0632e-20 -2.46843)
(99.6699 -5.31621e-20 -2.86695)
(99.7734 0 -3.29202)
(99.8938 -1.74065e-20 -3.74647)
(100.034 0 -4.23234)
(100.196 0 -4.75229)
(100.386 0 -5.3082)
(100.608 0 -5.90643)
(100.855 5.6957e-20 -6.51947)
(101.115 -6.56867e-20 -7.11415)
(101.388 4.14786e-20 -7.68016)
(101.67 3.12906e-20 -8.23122)
(101.96 -1.1061e-19 -8.73338)
(102.251 4.13005e-20 -9.25173)
(102.55 -1.46131e-19 -9.6606)
(102.84 1.12845e-19 -10.1887)
(103.138 -5.77895e-20 -10.4411)
(103.421 6.96497e-20 -11.0768)
(103.716 0 -11.0323)
(103.962 0 -11.9864)
(104.318 -4.37722e-19 -11.3463)
(104.349 -9.12813e-22 -13.0337)
(105.137 1.12078e-18 -11.2898)
(104.574 -7.04907e-19 -14.31)
(106.18 0 -10.8194)
(104.417 9.25435e-19 -15.6787)
(108.841 -2.08496e-18 -10.5377)
(92.7741 2.771e-18 -15.6293)
(99.6113 -2.71703e-20 -0.180563)
(99.6524 -1.27289e-20 -0.703793)
(99.7342 8.49799e-21 -0.923887)
(99.8171 1.47802e-20 -1.21849)
(99.8984 0 -1.53806)
(99.9849 4.17568e-21 -1.8695)
(100.081 0 -2.22416)
(100.192 -1.60463e-20 -2.60195)
(100.318 -2.33347e-20 -3.00369)
(100.462 1.03584e-20 -3.43189)
(100.627 -1.04096e-20 -3.88816)
(100.814 0 -4.37467)
(101.028 0 -4.893)
(101.274 0 -5.44874)
(101.542 -3.15418e-20 -6.01583)
(101.82 0 -6.56434)
(102.107 0 -7.08283)
(102.4 3.94102e-20 -7.58705)
(102.699 0 -8.03833)
(102.999 -6.35713e-20 -8.50813)
(103.306 0 -8.85786)
(103.605 -1.77813e-19 -9.33369)
(103.913 3.06899e-19 -9.51175)
(104.204 -7.00054e-20 -10.0958)
(104.51 0 -9.95503)
(104.755 0 -10.865)
(105.121 6.40537e-20 -10.1061)
(105.138 0 -11.7587)
(105.934 -6.41e-19 -9.87238)
(105.333 7.09048e-19 -12.8795)
(106.943 8.30933e-19 -9.26485)
(105.103 -1.03389e-18 -14.0287)
(109.125 -1.08874e-18 -8.66462)
(92.5713 -3.43475e-20 -14.3008)
(99.9688 0 0.00620206)
(100.025 4.41459e-21 -0.51693)
(100.122 -8.49274e-21 -0.713215)
(100.223 9.5059e-21 -0.998612)
(100.324 -3.29971e-20 -1.30172)
(100.43 -4.16124e-21 -1.61537)
(100.545 -3.61399e-20 -1.95104)
(100.676 -2.76865e-20 -2.30717)
(100.823 2.31881e-20 -2.68473)
(100.989 -1.14123e-19 -3.08591)
(101.175 5.26408e-20 -3.51172)
(101.385 0 -3.964)
(101.621 4.5258e-20 -4.44348)
(101.889 1.57227e-20 -4.95514)
(102.18 5.83905e-20 -5.47382)
(102.476 8.94257e-20 -5.97336)
(102.779 1.0472e-19 -6.44179)
(103.083 -2.42828e-19 -6.89895)
(103.391 1.40386e-19 -7.30222)
(103.693 -8.84843e-20 -7.73348)
(103.997 2.02769e-19 -8.04283)
(104.285 1.90546e-19 -8.49718)
(104.573 -3.60884e-19 -8.64749)
(104.843 -3.49401e-19 -9.22904)
(105.114 4.88427e-19 -9.07863)
(105.331 0 -10.0005)
(105.664 4.67281e-19 -9.25778)
(105.646 -6.65325e-19 -10.9245)
(106.387 0 -9.11939)
(105.78 9.93346e-20 -12.0876)
(107.289 5.25696e-20 -8.7029)
(105.563 6.22209e-20 -13.3603)
(109.419 1.0615e-18 -8.27207)
(92.3924 -1.40022e-18 -13.3265)
(100.3 0 0.209558)
(100.376 8.34229e-21 -0.30324)
(100.485 0 -0.477872)
(100.604 -3.23338e-20 -0.751711)
(100.725 5.59222e-20 -1.03636)
(100.849 0 -1.3304)
(100.984 3.61588e-20 -1.64485)
(101.134 1.2828e-20 -1.97699)
(101.302 3.09266e-20 -2.328)
(101.488 1.92348e-19 -2.69959)
(101.696 -1.42818e-19 -3.09255)
(101.926 0 -3.50824)
(102.184 -6.84076e-20 -3.94741)
(102.472 -1.74994e-19 -4.4144)
(102.779 0 -4.88633)
(103.089 1.64497e-20 -5.34099)
(103.401 -2.43923e-19 -5.7658)
(103.712 -1.29094e-20 -6.18349)
(104.023 1.68586e-19 -6.54785)
(104.328 1.53834e-20 -6.94655)
(104.634 -1.3049e-19 -7.21977)
(104.93 6.69025e-20 -7.64658)
(105.223 -2.66065e-19 -7.76214)
(105.503 3.78882e-19 -8.32356)
(105.779 -1.04669e-19 -8.14122)
(106.005 -5.25385e-19 -9.04643)
(106.35 1.17763e-18 -8.28528)
(106.347 -5.85403e-19 -9.9155)
(107.093 0 -8.11662)
(106.533 6.21085e-21 -10.985)
(108.029 -9.98008e-19 -7.64951)
(106.342 1.13025e-18 -12.1302)
(110.199 -7.99273e-20 -7.28918)
(92.4208 0 -12.0124)
(100.605 -3.37332e-20 0.428073)
(100.696 1.8567e-20 -0.0780783)
(100.818 2.37971e-20 -0.227348)
(100.953 -8.40823e-20 -0.490418)
(101.091 0 -0.755559)
(101.233 0 -1.02985)
(101.385 -8.43936e-20 -1.32296)
(101.552 -4.37938e-20 -1.6311)
(101.737 4.39219e-20 -1.95573)
(101.941 -9.02648e-20 -2.29819)
(102.167 1.64018e-19 -2.65869)
(102.416 -2.06003e-19 -3.03843)
(102.691 1.3078e-19 -3.437)
(102.997 1.76413e-19 -3.85836)
(103.321 1.04588e-19 -4.27961)
(103.646 1.38632e-20 -4.68221)
(103.972 1.50798e-19 -5.05158)
(104.297 -1.65791e-19 -5.4139)
(104.621 -1.03994e-19 -5.71671)
(104.937 1.20322e-19 -6.05881)
(105.254 -1.49389e-20 -6.26522)
(105.56 0 -6.63751)
(105.862 -3.89207e-19 -6.67933)
(106.151 4.28802e-19 -7.19109)
(106.44 0 -6.91917)
(106.668 6.64953e-19 -7.78469)
(107.031 -6.48792e-19 -6.91517)
(107.028 -7.69672e-19 -8.51391)
(107.785 8.40839e-19 -6.60934)
(107.23 9.98209e-19 -9.42897)
(108.711 2.68538e-20 -6.06386)
(107.069 -1.22981e-18 -10.3347)
(110.32 -1.34375e-18 -5.54694)
(91.5568 1.83193e-18 -10.517)
(100.888 0 0.659089)
(100.995 0 0.168065)
(101.127 3.32204e-20 0.0422668)
(101.277 -8.86288e-20 -0.207043)
(101.433 -8.98397e-21 -0.450475)
(101.592 -4.09606e-20 -0.702716)
(101.76 -2.12427e-20 -0.971726)
(101.945 -1.15793e-19 -1.25299)
(102.147 -6.12205e-20 -1.54823)
(102.369 -1.46105e-19 -1.85821)
(102.612 1.424e-19 -2.18307)
(102.878 -1.82598e-20 -2.52342)
(103.169 8.36052e-21 -2.87912)
(103.49 -2.65153e-19 -3.25317)
(103.826 0 -3.62551)
(104.159 1.66908e-20 -3.98139)
(104.489 0 -4.30566)
(104.813 0 -4.62842)
(105.133 -1.05826e-19 -4.89323)
(105.442 -1.35633e-19 -5.20431)
(105.747 3.0073e-19 -5.37968)
(106.041 -3.56515e-19 -5.73356)
(106.328 3.91845e-19 -5.75078)
(106.607 4.67243e-19 -6.25133)
(106.876 -5.13627e-19 -5.97216)
(107.091 -7.27573e-20 -6.83444)
(107.435 -6.83288e-19 -5.98389)
(107.418 -1.8437e-20 -7.57708)
(108.143 8.48084e-19 -5.72978)
(107.591 -6.09043e-20 -8.52217)
(109.036 -2.18495e-18 -5.2782)
(107.417 4.9655e-18 -9.4535)
(110.216 -5.18771e-18 -4.93352)
(90.3058 7.03419e-18 -9.25847)
(101.145 -3.50344e-20 0.897509)
(101.267 1.14295e-19 0.426143)
(101.407 4.60506e-20 0.323123)
(101.571 2.17135e-19 0.088159)
(101.742 -1.77069e-20 -0.132993)
(101.916 5.54654e-20 -0.363437)
(102.098 1.7552e-19 -0.608549)
(102.297 1.83024e-19 -0.863518)
(102.514 -6.66763e-20 -1.13025)
(102.75 3.03237e-19 -1.40927)
(103.007 -2.64248e-19 -1.70023)
(103.286 2.57217e-19 -2.00402)
(103.59 2.10448e-19 -2.31932)
(103.921 0 -2.64981)
(104.266 1.34649e-19 -2.97505)
(104.606 -4.53571e-19 -3.28486)
(104.941 0 -3.5612)
(105.267 0 -3.83731)
(105.589 -2.54364e-19 -4.05079)
(105.898 4.17719e-19 -4.31661)
(106.202 -1.59348e-19 -4.43476)
(106.493 0 -4.74244)
(106.773 -1.1169e-19 -4.69561)
(107.042 -3.81043e-19 -5.16172)
(107.305 -1.85617e-20 -4.79244)
(107.505 1.37914e-18 -5.63345)
(107.846 -1.55302e-18 -4.66019)
(107.816 8.14502e-19 -6.22442)
(108.532 -1.14249e-19 -4.27059)
(107.987 0 -6.93928)
(109.352 1.14662e-18 -3.71597)
(107.831 -1.27684e-18 -7.5834)
(109.753 0 -3.11899)
(88.5489 0 -7.74969)
(101.379 4.23763e-20 1.14429)
(101.512 -1.22023e-19 0.692771)
(101.659 -1.91529e-19 0.613233)
(101.835 -4.18198e-20 0.392927)
(102.02 -1.1003e-20 0.195107)
(102.206 -1.90506e-19 -0.0129634)
(102.401 -2.67387e-19 -0.233301)
(102.611 0 -0.461153)
(102.84 8.25562e-20 -0.698665)
(103.088 -1.54918e-19 -0.945739)
(103.357 8.65232e-20 -1.20219)
(103.647 1.05519e-19 -1.46825)
(103.961 -3.14435e-19 -1.74319)
(104.302 0 -2.0295)
(104.653 0 -2.31005)
(104.997 -1.21679e-20 -2.57769)
(105.332 -1.98532e-19 -2.81422)
(105.657 0 -3.05775)
(105.974 0 -3.24004)
(106.276 1.52871e-19 -3.48558)
(106.57 -3.47939e-19 -3.58496)
(106.851 3.82046e-19 -3.89095)
(107.12 -4.5458e-19 -3.83619)
(107.381 8.78946e-19 -4.3121)
(107.632 -5.57767e-19 -3.96222)
(107.822 -7.883e-20 -4.82815)
(108.149 8.09797e-19 -3.91584)
(108.115 -9.03059e-19 -5.50665)
(108.784 -6.73901e-19 -3.68034)
(108.275 1.0061e-18 -6.34784)
(109.594 0 -3.38793)
(108.129 1.18352e-18 -7.12028)
(109.559 -1.34358e-18 -3.1395)
(87.2201 0 -6.73813)
(101.588 -1.01101e-19 1.3952)
(101.732 0 0.966401)
(101.883 -1.30449e-20 0.908112)
(102.069 0 0.702279)
(102.264 1.21793e-19 0.526883)
(102.461 1.32175e-19 0.339821)
(102.665 1.43323e-19 0.142741)
(102.884 -8.50389e-20 -0.0600576)
(103.122 8.51779e-20 -0.270795)
(103.378 0 -0.489228)
(103.654 0 -0.714822)
(103.951 0 -0.948418)
(104.271 0 -1.18817)
(104.616 0 -1.43826)
(104.971 -7.86679e-20 -1.68056)
(105.316 1.67162e-19 -1.91351)
(105.652 3.03075e-19 -2.11484)
(105.977 1.23996e-19 -2.32607)
(106.294 -2.78919e-19 -2.47385)
(106.598 -1.56702e-19 -2.68909)
(106.893 0 -2.74835)
(107.178 -3.21891e-19 -3.02129)
(107.448 4.76177e-19 -2.91897)
(107.714 8.31285e-21 -3.36335)
(107.972 -3.04267e-19 -2.94398)
(108.174 0 -3.75833)
(108.509 0 -2.77847)
(108.505 2.15799e-19 -4.24078)
(109.251 -1.16706e-19 -2.41959)
(108.725 0 -4.79376)
(110.069 0 -1.94562)
(108.633 8.12466e-20 -5.24685)
(109.035 0 -1.5684)
(85.6855 -9.87853e-19 -5.30503)
(101.775 2.13893e-19 1.65066)
(101.927 -1.18311e-19 1.24314)
(102.081 1.49178e-19 1.20608)
(102.275 -3.19964e-20 1.01319)
(102.479 0 0.860118)
(102.683 3.99272e-20 0.692782)
(102.894 3.00483e-21 0.518121)
(103.121 -2.73708e-19 0.339297)
(103.365 -1.51761e-19 0.154056)
(103.627 -2.12532e-19 -0.0367748)
(103.909 0 -0.232939)
(104.211 -2.44524e-19 -0.434507)
(104.534 0 -0.640192)
(104.882 -2.78439e-19 -0.852441)
(105.238 0 -1.05581)
(105.584 0 -1.24986)
(105.919 1.11475e-19 -1.41176)
(106.242 -2.50935e-19 -1.58769)
(106.556 2.82425e-19 -1.6949)
(106.855 1.68655e-19 -1.88078)
(107.144 -5.67955e-19 -1.90205)
(107.42 4.25319e-19 -2.15703)
(107.678 4.89284e-19 -2.01527)
(107.929 -2.71752e-19 -2.45752)
(108.169 3.13959e-19 -2.00427)
(108.348 9.51481e-20 -2.83408)
(108.659 -4.85598e-19 -1.83839)
(108.638 -1.10348e-19 -3.32875)
(109.276 0 -1.52007)
(108.816 5.54585e-19 -3.89936)
(110.009 -5.98023e-19 -1.18386)
(108.599 -5.89933e-19 -4.35734)
(108.145 7.19473e-19 -0.907153)
(83.6028 8.90135e-19 -4.26964)
(101.94 -8.2534e-20 1.90822)
(102.099 8.85552e-20 1.52368)
(102.255 6.97181e-20 1.50605)
(102.455 -7.44584e-20 1.32696)
(102.665 0 1.19527)
(102.875 -8.55619e-20 1.04717)
(103.092 -4.61101e-20 0.894135)
(103.323 1.81416e-19 0.738117)
(103.571 1.94687e-19 0.577063)
(103.837 1.53399e-19 0.411858)
(104.122 0 0.24306)
(104.425 1.16307e-19 0.0698972)
(104.749 0 -0.105127)
(105.097 -1.12083e-20 -0.286772)
(105.45 0 -0.457974)
(105.792 0 -0.62545)
(106.121 1.14547e-19 -0.76111)
(106.438 4.45226e-21 -0.917387)
(106.744 0 -1.00674)
(107.037 0 -1.18196)
(107.319 3.83625e-19 -1.18911)
(107.591 -2.11527e-19 -1.44472)
(107.845 -1.21451e-19 -1.29598)
(108.094 0 -1.75205)
(108.334 0 -1.29747)
(108.514 1.60974e-21 -2.15325)
(108.824 9.70961e-20 -1.16014)
(108.809 -4.42411e-19 -2.684)
(109.451 4.83986e-19 -0.884856)
(109.003 7.04535e-20 -3.28474)
(110.213 0 -0.61722)
(108.836 -8.36413e-20 -3.72455)
(107.631 0 -0.519587)
(82.1745 6.45794e-20 -3.45184)
(102.084 0 2.16623)
(102.248 -1.73086e-20 1.80429)
(102.405 -1.07756e-19 1.80517)
(102.608 5.58395e-20 1.63783)
(102.824 0 1.52725)
(103.038 8.56811e-20 1.3965)
(103.259 0 1.26387)
(103.493 2.60758e-20 1.12902)
(103.743 -1.36093e-19 0.990305)
(104.011 1.12538e-19 0.848915)
(104.296 -1.25116e-19 0.705013)
(104.6 1.28617e-19 0.558375)
(104.924 -1.42074e-19 0.410678)
(105.269 2.90826e-19 0.258574)
(105.62 -1.74849e-19 0.116307)
(105.959 0 -0.0226515)
(106.284 2.97087e-20 -0.13016)
(106.597 -1.98714e-19 -0.260647)
(106.9 -7.75759e-20 -0.316781)
(107.189 -4.29603e-20 -0.46819)
(107.467 0 -0.434187)
(107.737 -1.68985e-19 -0.666137)
(107.989 -6.43695e-20 -0.458468)
(108.237 0 -0.883391)
(108.477 1.42645e-21 -0.357363)
(108.659 -1.77414e-19 -1.15418)
(108.99 5.05924e-20 -0.10421)
(108.956 -5.56138e-20 -1.50607)
(109.583 -6.28004e-20 0.286423)
(109.154 8.0618e-22 -1.87314)
(110.296 7.4756e-20 0.647672)
(108.861 -8.35568e-20 -1.99492)
(106.647 0 0.804758)
(80.2616 1.39593e-19 -2.28847)
(102.207 -1.71362e-20 2.42121)
(102.376 1.71559e-20 2.08947)
(102.531 9.3473e-20 2.1023)
(102.738 1.29664e-21 1.94981)
(102.956 6.71609e-20 1.85789)
(103.174 0 1.74402)
(103.397 9.99601e-20 1.63061)
(103.632 0 1.51552)
(103.884 1.09396e-19 1.39767)
(104.152 8.98095e-20 1.27818)
(104.437 3.15561e-19 1.1575)
(104.74 -3.2607e-20 1.0348)
(105.062 3.0381e-19 0.913264)
(105.404 -3.76665e-20 0.787253)
(105.751 1.94344e-19 0.674061)
(106.085 2.04064e-19 0.559489)
(106.405 0 0.479322)
(106.712 0 0.368754)
(107.006 1.51461e-19 0.335681)
(107.287 -4.41165e-20 0.197747)
(107.554 4.84347e-20 0.247334)
(107.812 0 0.0170977)
(108.05 6.15837e-20 0.227895)
(108.282 1.0519e-19 -0.207866)
(108.502 3.99829e-20 0.301726)
(108.665 -8.86689e-20 -0.521048)
(108.951 0 0.493273)
(108.943 -1.10798e-19 -0.939291)
(109.508 -6.12771e-20 0.771244)
(109.099 1.36806e-19 -1.39217)
(110.181 -2.25962e-19 0.952433)
(108.711 8.49705e-20 -1.65962)
(105.682 -4.65637e-20 0.979727)
(78.3539 -3.16212e-22 -1.70378)
(102.31 -8.02767e-20 2.67726)
(102.482 -4.81698e-21 2.36923)
(102.636 -7.64262e-20 2.39689)
(102.844 5.47552e-21 2.2568)
(103.065 -1.85993e-19 2.18377)
(103.285 -3.102e-21 2.08572)
(103.509 -9.4201e-20 1.99095)
(103.744 -1.13448e-19 1.89475)
(103.995 0 1.7969)
(104.263 -2.45076e-19 1.69854)
(104.546 -1.2862e-19 1.59989)
(104.847 -1.39317e-19 1.50051)
(105.165 -2.92531e-19 1.40277)
(105.503 1.5474e-19 1.30207)
(105.845 1.73658e-19 1.21235)
(106.173 -1.98385e-19 1.1195)
(106.487 1.51223e-20 1.05768)
(106.789 -3.38615e-20 0.960915)
(107.078 1.73672e-19 0.941964)
(107.356 0 0.807313)
(107.621 -2.51655e-20 0.87187)
(107.879 5.60258e-20 0.635621)
(108.119 7.46123e-22 0.862145)
(108.355 -3.51027e-20 0.408246)
(108.582 8.02795e-20 0.939454)
(108.752 -1.79319e-19 0.0927015)
(109.07 9.87564e-20 1.12969)
(109.052 2.23883e-19 -0.31756)
(109.653 -1.84765e-19 1.3978)
(109.249 -6.98652e-20 -0.708)
(110.394 7.60429e-20 1.56458)
(108.844 -1.6795e-19 -0.907851)
(105.026 2.31723e-19 1.46621)
(77.0895 0 -1.02866)
(102.395 -2.38095e-21 2.93104)
(102.571 0 2.64751)
(102.722 8.40232e-20 2.68808)
(102.931 -2.66434e-21 2.55956)
(103.153 8.59841e-20 2.50447)
(103.373 -3.71191e-22 2.42074)
(103.597 1.1279e-19 2.34329)
(103.832 1.24853e-19 2.26428)
(104.081 -1.44004e-20 2.18456)
(104.346 1.24423e-19 2.10499)
(104.627 0 2.02598)
(104.925 1.39844e-19 1.94643)
(105.238 1.48142e-19 1.8701)
(105.572 -1.95612e-19 1.78986)
(105.908 -2.71342e-19 1.72365)
(106.232 2.43846e-21 1.64932)
(106.541 2.55177e-21 1.61168)
(106.839 -2.04887e-19 1.53302)
(107.125 -1.56145e-19 1.54136)
(107.401 -9.05263e-20 1.4275)
(107.664 2.00102e-19 1.52255)
(107.923 -2.29159e-19 1.31157)
(108.164 1.2646e-19 1.57428)
(108.402 -2.3955e-21 1.15771)
(108.633 1.59144e-19 1.72543)
(108.807 1.78915e-19 0.933117)
(109.103 -1.03491e-19 1.9926)
(109.106 2.22792e-19 0.646125)
(109.687 1.22498e-19 2.32238)
(109.316 6.88473e-20 0.400469)
(110.366 -6.13421e-19 2.53491)
(108.718 6.73597e-19 0.412362)
(103.977 7.71263e-19 2.33643)
(75.4812 -1.15106e-18 -0.15053)
(102.463 8.42364e-20 3.18088)
(102.641 -1.00536e-19 2.92234)
(102.789 1.03058e-20 2.97399)
(102.998 0 2.85756)
(103.22 0 2.81917)
(103.439 -2.61325e-20 2.7491)
(103.663 -1.88656e-19 2.68821)
(103.896 -2.93073e-20 2.6254)
(104.143 2.92972e-20 2.563)
(104.405 0 2.5015)
(104.683 0 2.44141)
(104.976 0 2.38195)
(105.285 0 2.32668)
(105.612 0 2.26963)
(105.942 1.81128e-19 2.22652)
(106.258 0 2.17579)
(106.559 1.19428e-19 2.16047)
(106.849 4.45124e-22 2.10129)
(107.127 0 2.1329)
(107.394 -3.50138e-21 2.02822)
(107.647 9.66475e-20 2.15051)
(107.897 1.12778e-19 1.93064)
(108.127 0 2.22818)
(108.359 -1.42879e-19 1.77475)
(108.579 7.86301e-20 2.3806)
(108.747 -1.55584e-21 1.53818)
(109.038 -1.98234e-19 2.6148)
(109.009 0 1.22648)
(109.614 -1.22624e-19 2.87599)
(109.216 -6.1628e-19 0.960949)
(110.254 5.15222e-19 2.9599)
(108.526 6.58071e-19 0.914608)
(102.926 -6.93718e-19 2.69762)
(73.9705 -7.03137e-20 0.393466)
(102.515 0 3.42812)
(102.693 8.07931e-20 3.19211)
(102.839 0 3.25537)
(103.046 0 3.14929)
(103.268 2.5143e-20 3.12744)
(103.486 1.46383e-21 3.06975)
(103.708 2.58242e-20 3.02453)
(103.938 5.62963e-20 2.97671)
(104.183 0 2.93029)
(104.441 0 2.88516)
(104.715 7.00275e-20 2.84211)
(105.003 -6.99884e-20 2.79969)
(105.305 -7.78037e-20 2.76263)
(105.625 7.69805e-20 2.72214)
(105.947 0 2.69786)
(106.254 2.09314e-19 2.65907)
(106.546 -7.55643e-22 2.66074)
(106.827 1.37241e-19 2.60886)
(107.095 0 2.65526)
(107.354 1.49513e-21 2.55707)
(107.598 -1.93998e-19 2.69331)
(107.839 0 2.48434)
(108.06 0 2.79452)
(108.279 0 2.36794)
(108.49 -7.7518e-20 2.98076)
(108.647 2.59851e-19 2.1875)
(108.924 -2.82732e-19 3.26047)
(108.917 5.24344e-20 1.97035)
(109.474 1.16805e-19 3.55968)
(109.115 6.62029e-20 1.85479)
(110.052 0 3.71893)
(108.115 0 1.93374)
(101.581 -7.88925e-19 3.41898)
(72.2407 1.20737e-18 1.0338)
(102.551 1.13772e-21 3.67004)
(102.73 -1.03353e-19 3.45803)
(102.872 -4.53219e-20 3.53025)
(103.078 -4.80576e-20 3.43495)
(103.298 5.07042e-20 3.42834)
(103.514 -5.06956e-20 3.38207)
(103.734 -1.10225e-19 3.35164)
(103.961 0 3.3175)
(104.202 -5.96162e-20 3.28589)
(104.457 -2.58455e-19 3.25579)
(104.725 -3.57547e-21 3.22823)
(105.007 -3.72294e-21 3.20169)
(105.304 -7.68852e-20 3.18088)
(105.617 0 3.15732)
(105.93 0 3.14947)